 *******************************************************************************
 ** Site#:  958            For non-commercial use only         Version 9.015L **
 *******************************************************************************
 ** Cite this work as: MOPAC2009, James J. P. Stewart, Stewart Computational  **
 ** Chemistry, Version 9.015L web: HTTP://OpenMOPAC.net                       **
 *******************************************************************************
 **                                                                           **
 **                                MOPAC2009                                  **
 **                                                                           **
 *******************************************************************************

                            PM6 CALCULATION RESULTS


 *******************************************************************************
 *  CALCULATION DONE:                                Tue Sep  6 16:24:40 2011  *
 *  PM6      - The PM6 Hamiltonian to be used
 *
 *
 *
 *                 CHARGE ON SYSTEM =     1
 *
 *
 *
 *  EPS= 78.400
 *  RSOLV=  1.300
 *  LET      - OVERRIDE SOME SAFETY CHECKS
 *  XYZ      - CARTESIAN COORDINATE SYSTEM TO BE USED
 *  T=       - A TIME OF  0.3E+08 SECONDS REQUESTED
 *  DUMP=N   - RESTART FILE WRITTEN EVERY  4320.000 SECONDS
 *  DDMIN=   - MINIMUM TRUST RADIUS  0.000 ANG/RAD
 *  GNORM=   - EXIT WHEN GRADIENT NORM DROPS BELOW .150    
 *  RELSCF   - DEFAULT SCF CRITERION MULTIPLIED BY   0.100    
 *             (DEFAULT SCFCRT= 0.00010)
 *  SYBYL    - OUTPUT SYBYL FILE
 *  MULLIK   - THE MULLIKEN ANALYSIS TO BE PERFORMED
 *******************************************************************************
 PM6 T=31535772 DUMP=4320 XYZ EPS=78.40 RSOLV=1.30 MULLIK SYBYL +
 CHARGE=1 RELSCF=0.1 LET DDMIN=0.0 GNORM=0.15
 SJ000001185-1_T001S001I002C02: Geometry optimization step

   ATOM   CHEMICAL          X               Y              Z
  NUMBER   SYMBOL      (ANGSTROMS)     (ANGSTROMS)    (ANGSTROMS)
 
     1       N          2.3500000  *    4.178000  *    0.054000  *
     2       C          2.3030000  *    5.515000  *   -0.096000  *
     3       O          1.2290000  *    6.072000  *   -0.222000  *
     4       C          3.5420000  *    6.306000  *   -0.107000  *
     5       C          3.5400000  *    7.684000  *   -0.259000  *
     6       C          4.7390000  *    8.388000  *   -0.264000  *
     7       C          5.9400000  *    7.756000  *   -0.121000  *
     8       C          4.7770000  *    5.634000  *    0.042000  *
     9       C          5.9860000  *    6.360000  *    0.036000  *
    10       C          7.1980000  *    5.663000  *    0.186000  *
    11       C          7.1920000  *    4.306000  *    0.335000  *
    12       C          6.0070000  *    3.579000  *    0.343000  *
    13       C          4.7900000  *    4.229000  *    0.196000  *
    14       C          3.5090000  *    3.508000  *    0.203000  *
    15       O          3.4960000  *    2.299000  *    0.335000  *
    16       H          2.6050000  *    8.212000  *   -0.374000  *
    17       H          4.7190000  *    9.462000  *   -0.383000  *
    18       H          8.1340000  *    6.201000  *    0.184000  *
    19       H          8.1310000  *    3.784000  *    0.449000  *
    20       H          6.0340000  *    2.506000  *    0.462000  *
    21       C          1.1490000  *    3.457000  *    0.061000  *
    22       C          0.4950000  *    3.208000  *    1.259000  *
    23       C         -0.6930000  *    2.494000  *    1.262000  *
    24       H          0.9110000  *    3.570000  *    2.188000  *
    25       O         -1.3350000  *    2.248000  *    2.434000  *
    26       C         -1.2230000  *    2.025000  *    0.068000  *
    27       C         -0.5730000  *    2.279000  *   -1.125000  *
    28       H         -2.1480000  *    1.469000  *    0.070000  *
    29       C          0.6120000  *    2.990000  *   -1.131000  *
    30       H         -0.9900000  *    1.917000  *   -2.053000  *
    31       H          1.1200000  *    3.183000  *   -2.065000  *
    32       N          7.1950000  *    8.541000  *   -0.131000  *
    33       O          7.2320000  *    9.636000  *    0.400000  *
    34       O          8.1900000  *    8.092000  *   -0.671000  *
 


          CARTESIAN COORDINATES 

    NO.       ATOM         X         Y         Z

     1         N        2.3500    4.1780    0.0540
     2         C        2.3030    5.5150   -0.0960
     3         O        1.2290    6.0720   -0.2220
     4         C        3.5420    6.3060   -0.1070
     5         C        3.5400    7.6840   -0.2590
     6         C        4.7390    8.3880   -0.2640
     7         C        5.9400    7.7560   -0.1210
     8         C        4.7770    5.6340    0.0420
     9         C        5.9860    6.3600    0.0360
    10         C        7.1980    5.6630    0.1860
    11         C        7.1920    4.3060    0.3350
    12         C        6.0070    3.5790    0.3430
    13         C        4.7900    4.2290    0.1960
    14         C        3.5090    3.5080    0.2030
    15         O        3.4960    2.2990    0.3350
    16         H        2.6050    8.2120   -0.3740
    17         H        4.7190    9.4620   -0.3830
    18         H        8.1340    6.2010    0.1840
    19         H        8.1310    3.7840    0.4490
    20         H        6.0340    2.5060    0.4620
    21         C        1.1490    3.4570    0.0610
    22         C        0.4950    3.2080    1.2590
    23         C       -0.6930    2.4940    1.2620
    24         H        0.9110    3.5700    2.1880
    25         O       -1.3350    2.2480    2.4340
    26         C       -1.2230    2.0250    0.0680
    27         C       -0.5730    2.2790   -1.1250
    28         H       -2.1480    1.4690    0.0700
    29         C        0.6120    2.9900   -1.1310
    30         H       -0.9900    1.9170   -2.0530
    31         H        1.1200    3.1830   -2.0650
    32         N        7.1950    8.5410   -0.1310
    33         O        7.2320    9.6360    0.4000
    34         O        8.1900    8.0920   -0.6710

 General Reference for PM6:
 "Optimization of Parameters for Semiempirical Methods V: Modification of NDDO Approximations
 and Application to 70 Elements", J. J. P. Stewart, J. Mol. Mod., 13, 1173-1213 (2007)
 URL: http://www.springerlink.com/content/ar33482301010477/fulltext.pdf

           Empirical Formula: C18 H9 N2 O5  =    34 atoms



      MOLECULAR POINT GROUP   :   C1  


      RHF CALCULATION, NO. OF DOUBLY OCCUPIED LEVELS =   60

      Geometry optimization using EF
  SCF CRITERION =    0.1000E-04

          DIAGONAL MATRIX USED AS START HESSIAN

 CYCLE:     1 TIME:   0.163 TIME LEFT: 16.53W  GRAD.:   416.544 HEAT: 175.0381
 CYCLE:     2 TIME:   0.085 TIME LEFT: 16.53W  GRAD.:   200.216 HEAT: 139.3824
 CYCLE:     3 TIME:   0.082 TIME LEFT: 16.53W  GRAD.:   172.147 HEAT: 131.9183
 CYCLE:     4 TIME:   0.083 TIME LEFT: 16.53W  GRAD.:   280.371 HEAT: 137.8883
 CYCLE:     5 TIME:   0.082 TIME LEFT: 16.53W  GRAD.:   346.818 HEAT: 149.7445
 CYCLE:     6 TIME:   0.082 TIME LEFT: 16.53W  GRAD.:   229.758 HEAT: 133.7750
 CYCLE:     7 TIME:   0.082 TIME LEFT: 16.53W  GRAD.:   271.660 HEAT: 141.4808
 CYCLE:     8 TIME:   0.082 TIME LEFT: 16.53W  GRAD.:   262.452 HEAT: 139.0959
 CYCLE:     9 TIME:   0.081 TIME LEFT: 16.53W  GRAD.:   225.230 HEAT: 135.2033
 CYCLE:    10 TIME:   0.082 TIME LEFT: 16.53W  GRAD.:   280.262 HEAT: 140.4271
 CYCLE:    11 TIME:   0.083 TIME LEFT: 16.53W  GRAD.:   285.059 HEAT: 140.0063
 CYCLE:    12 TIME:   0.082 TIME LEFT: 16.53W  GRAD.:   260.487 HEAT: 136.6986
 CYCLE:    13 TIME:   0.083 TIME LEFT: 16.53W  GRAD.:   289.471 HEAT: 139.1620
 CYCLE:    14 TIME:   0.081 TIME LEFT: 16.53W  GRAD.:   286.098 HEAT: 140.0908
 CYCLE:    15 TIME:   0.082 TIME LEFT: 16.53W  GRAD.:   275.786 HEAT: 139.9262
 CYCLE:    16 TIME:   0.083 TIME LEFT: 16.53W  GRAD.:   248.358 HEAT: 136.6562
 CYCLE:    17 TIME:   0.082 TIME LEFT: 16.53W  GRAD.:   341.644 HEAT: 142.8908
 CYCLE:    18 TIME:   0.082 TIME LEFT: 16.53W  GRAD.:   290.869 HEAT: 141.3253
 CYCLE:    19 TIME:   0.081 TIME LEFT: 16.53W  GRAD.:   325.449 HEAT: 140.9193
 CYCLE:    20 TIME:   0.082 TIME LEFT: 16.53W  GRAD.:   271.923 HEAT: 137.5341
 CYCLE:    21 TIME:   0.083 TIME LEFT: 16.53W  GRAD.:   356.009 HEAT: 145.2994
 CYCLE:    22 TIME:   0.088 TIME LEFT: 16.53W  GRAD.:   187.956 HEAT: 133.1932
 CYCLE:    23 TIME:   0.083 TIME LEFT: 16.53W  GRAD.:   300.383 HEAT: 140.1586
 CYCLE:    24 TIME:   0.084 TIME LEFT: 16.53W  GRAD.:   248.532 HEAT: 137.9128
 CYCLE:    25 TIME:   0.083 TIME LEFT: 16.53W  GRAD.:   258.522 HEAT: 135.7200
 CYCLE:    26 TIME:   0.085 TIME LEFT: 16.53W  GRAD.:   269.560 HEAT: 139.2484
 CYCLE:    27 TIME:   0.083 TIME LEFT: 16.53W  GRAD.:   284.484 HEAT: 138.5524
 CYCLE:    28 TIME:   0.083 TIME LEFT: 16.53W  GRAD.:   271.305 HEAT: 138.5274
 CYCLE:    29 TIME:   0.088 TIME LEFT: 16.53W  GRAD.:   220.584 HEAT: 134.9448
 CYCLE:    30 TIME:   0.083 TIME LEFT: 16.53W  GRAD.:   286.780 HEAT: 139.7017
 CYCLE:    31 TIME:   0.081 TIME LEFT: 16.53W  GRAD.:   258.776 HEAT: 137.7575
 CYCLE:    32 TIME:   0.083 TIME LEFT: 16.53W  GRAD.:   301.986 HEAT: 139.4657
 CYCLE:    33 TIME:   0.081 TIME LEFT: 16.53W  GRAD.:   230.011 HEAT: 137.2959
 CYCLE:    34 TIME:   0.081 TIME LEFT: 16.53W  GRAD.:   261.558 HEAT: 135.6125
 CYCLE:    35 TIME:   0.081 TIME LEFT: 16.53W  GRAD.:   240.989 HEAT: 137.3222
 CYCLE:    36 TIME:   0.082 TIME LEFT: 16.53W  GRAD.:   300.483 HEAT: 138.0756
 CYCLE:    37 TIME:   0.081 TIME LEFT: 16.53W  GRAD.:   213.291 HEAT: 135.6537
 CYCLE:    38 TIME:   0.081 TIME LEFT: 16.53W  GRAD.:   239.206 HEAT: 134.8943
 CYCLE:    39 TIME:   0.082 TIME LEFT: 16.53W  GRAD.:   285.903 HEAT: 141.8954
 CYCLE:    40 TIME:   0.082 TIME LEFT: 16.53W  GRAD.:   248.504 HEAT: 135.3946
 CYCLE:    41 TIME:   0.081 TIME LEFT: 16.53W  GRAD.:   241.165 HEAT: 135.6751
 CYCLE:    42 TIME:   0.083 TIME LEFT: 16.53W  GRAD.:   286.731 HEAT: 140.8000
 CYCLE:    43 TIME:   0.083 TIME LEFT: 16.53W  GRAD.:   257.488 HEAT: 135.8231
 CYCLE:    44 TIME:   0.086 TIME LEFT: 16.53W  GRAD.:   214.919 HEAT: 134.5941
 CYCLE:    45 TIME:   0.083 TIME LEFT: 16.53W  GRAD.:   285.819 HEAT: 139.3570
 CYCLE:    46 TIME:   0.080 TIME LEFT: 16.53W  GRAD.:   202.288 HEAT: 134.6985
 CYCLE:    47 TIME:   0.085 TIME LEFT: 16.53W  GRAD.:   249.438 HEAT: 135.4336
 CYCLE:    48 TIME:   0.082 TIME LEFT: 16.53W  GRAD.:   226.873 HEAT: 136.1495
 CYCLE:    49 TIME:   0.083 TIME LEFT: 16.53W  GRAD.:   243.544 HEAT: 136.6969
 CYCLE:    50 TIME:   0.085 TIME LEFT: 16.53W  GRAD.:   163.828 HEAT: 131.4334
 CYCLE:    51 TIME:   0.080 TIME LEFT: 16.53W  GRAD.:   241.713 HEAT: 135.2662
 CYCLE:    52 TIME:   0.085 TIME LEFT: 16.53W  GRAD.:   191.601 HEAT: 134.2862
 CYCLE:    53 TIME:   0.087 TIME LEFT: 16.53W  GRAD.:   163.739 HEAT: 129.5634
 CYCLE:    54 TIME:   0.080 TIME LEFT: 16.53W  GRAD.:   183.198 HEAT: 133.3453
 CYCLE:    55 TIME:   0.090 TIME LEFT: 16.53W  GRAD.:   157.146 HEAT: 129.9828
 CYCLE:    56 TIME:   0.085 TIME LEFT: 16.53W  GRAD.:   168.014 HEAT: 132.1137
 CYCLE:    57 TIME:   0.085 TIME LEFT: 16.53W  GRAD.:   116.319 HEAT: 127.4033
 CYCLE:    58 TIME:   0.080 TIME LEFT: 16.53W  GRAD.:   177.364 HEAT: 132.4782
 CYCLE:    59 TIME:   0.088 TIME LEFT: 16.53W  GRAD.:   129.437 HEAT: 128.1358
 CYCLE:    60 TIME:   0.080 TIME LEFT: 16.53W  GRAD.:   186.692 HEAT: 133.3765
 CYCLE:    61 TIME:   0.083 TIME LEFT: 16.53W  GRAD.:    81.392 HEAT: 124.9293
 CYCLE:    62 TIME:   0.082 TIME LEFT: 16.53W  GRAD.:   214.311 HEAT: 136.4299
 CYCLE:    63 TIME:   0.085 TIME LEFT: 16.53W  GRAD.:    78.193 HEAT: 124.6710
 CYCLE:    64 TIME:   0.081 TIME LEFT: 16.53W  GRAD.:   201.320 HEAT: 134.7884
 CYCLE:    65 TIME:   0.083 TIME LEFT: 16.53W  GRAD.:    24.757 HEAT: 122.5589
 CYCLE:    66 TIME:   0.080 TIME LEFT: 16.53W  GRAD.:    99.271 HEAT: 125.9550
 CYCLE:    67 TIME:   0.080 TIME LEFT: 16.53W  GRAD.:    22.900 HEAT: 122.5793
 CYCLE:    68 TIME:   0.080 TIME LEFT: 16.53W  GRAD.:    76.260 HEAT: 125.1757
 CYCLE:    69 TIME:   0.080 TIME LEFT: 16.53W  GRAD.:    10.720 HEAT: 122.3931
 CYCLE:    70 TIME:   0.081 TIME LEFT: 16.53W  GRAD.:    34.537 HEAT: 122.9348
 CYCLE:    71 TIME:   0.074 TIME LEFT: 16.53W  GRAD.:     3.733 HEAT: 122.3331
 CYCLE:    72 TIME:   0.073 TIME LEFT: 16.53W  GRAD.:     7.627 HEAT: 122.3706
 CYCLE:    73 TIME:   0.071 TIME LEFT: 16.53W  GRAD.:     0.989 HEAT: 122.3280
 CYCLE:    74 TIME:   0.077 TIME LEFT: 16.53W  GRAD.:     1.960 HEAT: 122.3201
 CYCLE:    75 TIME:   0.077 TIME LEFT: 16.53W  GRAD.:     0.641 HEAT: 122.3220
 CYCLE:    76 TIME:   0.077 TIME LEFT: 16.53W  GRAD.:     0.904 HEAT: 122.3279
 CYCLE:    77 TIME:   0.073 TIME LEFT: 16.53W  GRAD.:     0.500 HEAT: 122.3285
 CYCLE:    78 TIME:   0.076 TIME LEFT: 16.53W  GRAD.:     0.721 HEAT: 122.3234
 CYCLE:    79 TIME:   0.081 TIME LEFT: 16.53W  GRAD.:     1.392 HEAT: 122.3227
 CYCLE:    80 TIME:   0.081 TIME LEFT: 16.53W  GRAD.:     1.679 HEAT: 122.2884
 CYCLE:    81 TIME:   0.078 TIME LEFT: 16.53W  GRAD.:     0.884 HEAT: 122.2800
 CYCLE:    82 TIME:   0.080 TIME LEFT: 16.53W  GRAD.:     0.955 HEAT: 122.2779
 CYCLE:    83 TIME:   0.076 TIME LEFT: 16.53W  GRAD.:     0.989 HEAT: 122.2834
 CYCLE:    84 TIME:   0.081 TIME LEFT: 16.53W  GRAD.:     1.164 HEAT: 122.2969
 CYCLE:    85 TIME:   0.075 TIME LEFT: 16.53W  GRAD.:     0.885 HEAT: 122.2731
 CYCLE:    86 TIME:   0.076 TIME LEFT: 16.53W  GRAD.:     0.614 HEAT: 122.2964
 CYCLE:    87 TIME:   0.081 TIME LEFT: 16.53W  GRAD.:     0.674 HEAT: 122.2956
 CYCLE:    88 TIME:   0.078 TIME LEFT: 16.53W  GRAD.:     1.452 HEAT: 122.2856
 CYCLE:    89 TIME:   0.074 TIME LEFT: 16.53W  GRAD.:     0.554 HEAT: 122.3025
 CYCLE:    90 TIME:   0.075 TIME LEFT: 16.53W  GRAD.:     0.515 HEAT: 122.3106
 CYCLE:    91 TIME:   0.076 TIME LEFT: 16.53W  GRAD.:     0.326 HEAT: 122.3022
 CYCLE:    92 TIME:   0.076 TIME LEFT: 16.53W  GRAD.:     0.630 HEAT: 122.3070
 CYCLE:    93 TIME:   0.076 TIME LEFT: 16.53W  GRAD.:     0.634 HEAT: 122.3044
 CYCLE:    94 TIME:   0.075 TIME LEFT: 16.53W  GRAD.:     0.483 HEAT: 122.3050
 CYCLE:    95 TIME:   0.076 TIME LEFT: 16.53W  GRAD.:     0.325 HEAT: 122.3033
 CYCLE:    96 TIME:   0.076 TIME LEFT: 16.53W  GRAD.:     0.251 HEAT: 122.3025
 CYCLE:    97 TIME:   0.075 TIME LEFT: 16.53W  GRAD.:     0.497 HEAT: 122.2498
 CYCLE:    98 TIME:   0.076 TIME LEFT: 16.53W  GRAD.:     0.653 HEAT: 122.2505
 CYCLE:    99 TIME:   0.072 TIME LEFT: 16.53W  GRAD.:     0.365 HEAT: 122.2496
 CYCLE:   100 TIME:   0.076 TIME LEFT: 16.53W  GRAD.:     0.397 HEAT: 122.2420
 CYCLE:   101 TIME:   0.076 TIME LEFT: 16.53W  GRAD.:     0.360 HEAT: 122.2426
 CYCLE:   102 TIME:   0.076 TIME LEFT: 16.53W  GRAD.:     0.431 HEAT: 122.2130
 CYCLE:   103 TIME:   0.075 TIME LEFT: 16.53W  GRAD.:     0.436 HEAT: 122.1919
 CYCLE:   104 TIME:   0.075 TIME LEFT: 16.53W  GRAD.:     0.301 HEAT: 122.1913
 CYCLE:   105 TIME:   0.081 TIME LEFT: 16.53W  GRAD.:     1.167 HEAT: 122.2599
 CYCLE:   106 TIME:   0.080 TIME LEFT: 16.53W  GRAD.:     0.548 HEAT: 122.1820
 CYCLE:   107 TIME:   0.080 TIME LEFT: 16.53W  GRAD.:     0.595 HEAT: 122.1910
 CYCLE:   108 TIME:   0.075 TIME LEFT: 16.53W  GRAD.:     0.315 HEAT: 122.1519
 CYCLE:   109 TIME:   0.078 TIME LEFT: 16.53W  GRAD.:     0.676 HEAT: 122.2367
 CYCLE:   110 TIME:   0.075 TIME LEFT: 16.53W  GRAD.:     0.679 HEAT: 122.2356
 CYCLE:   111 TIME:   0.075 TIME LEFT: 16.53W  GRAD.:     0.517 HEAT: 122.2559
 CYCLE:   112 TIME:   0.080 TIME LEFT: 16.53W  GRAD.:     0.841 HEAT: 122.2668
 CYCLE:   113 TIME:   0.076 TIME LEFT: 16.53W  GRAD.:     0.381 HEAT: 122.2690
 CYCLE:   114 TIME:   0.073 TIME LEFT: 16.53W  GRAD.:     0.363 HEAT: 122.2567
 CYCLE:   115 TIME:   0.073 TIME LEFT: 16.53W  GRAD.:     0.208 HEAT: 122.2572
 CYCLE:   116 TIME:   0.078 TIME LEFT: 16.53W  GRAD.:     0.417 HEAT: 122.2599
 CYCLE:   117 TIME:   0.080 TIME LEFT: 16.53W  GRAD.:     0.490 HEAT: 122.2533
 CYCLE:   118 TIME:   0.081 TIME LEFT: 16.53W  GRAD.:     0.640 HEAT: 122.2868
 CYCLE:   119 TIME:   0.080 TIME LEFT: 16.53W  GRAD.:     0.720 HEAT: 122.2724
 CYCLE:   120 TIME:   0.076 TIME LEFT: 16.53W  GRAD.:     0.518 HEAT: 122.2817
 CYCLE:   121 TIME:   0.080 TIME LEFT: 16.53W  GRAD.:     0.616 HEAT: 122.3015
 CYCLE:   122 TIME:   0.080 TIME LEFT: 16.53W  GRAD.:     0.648 HEAT: 122.2662
 CYCLE:   123 TIME:   0.081 TIME LEFT: 16.53W  GRAD.:     0.940 HEAT: 122.2690
 CYCLE:   124 TIME:   0.080 TIME LEFT: 16.53W  GRAD.:     0.811 HEAT: 122.2693
 CYCLE:   125 TIME:   0.080 TIME LEFT: 16.53W  GRAD.:     1.829 HEAT: 122.2763
 CYCLE:   126 TIME:   0.076 TIME LEFT: 16.53W  GRAD.:     1.044 HEAT: 122.2711
 CYCLE:   127 TIME:   0.081 TIME LEFT: 16.53W  GRAD.:     0.584 HEAT: 122.2775
 CYCLE:   128 TIME:   0.080 TIME LEFT: 16.53W  GRAD.:     0.745 HEAT: 122.3026
 CYCLE:   129 TIME:   0.080 TIME LEFT: 16.53W  GRAD.:     0.639 HEAT: 122.2425
 CYCLE:   130 TIME:   0.081 TIME LEFT: 16.53W  GRAD.:     0.872 HEAT: 122.2645
 CYCLE:   131 TIME:   0.075 TIME LEFT: 16.53W  GRAD.:     0.523 HEAT: 122.2708
 CYCLE:   132 TIME:   0.078 TIME LEFT: 16.53W  GRAD.:     0.497 HEAT: 122.2577
 CYCLE:   133 TIME:   0.076 TIME LEFT: 16.53W  GRAD.:     0.645 HEAT: 122.2663
 CYCLE:   134 TIME:   0.080 TIME LEFT: 16.53W  GRAD.:     1.738 HEAT: 122.2806
 CYCLE:   135 TIME:   0.075 TIME LEFT: 16.53W  GRAD.:     0.736 HEAT: 122.2105
 CYCLE:   136 TIME:   0.078 TIME LEFT: 16.53W  GRAD.:     0.524 HEAT: 122.2201
 CYCLE:   137 TIME:   0.080 TIME LEFT: 16.53W  GRAD.:     0.576 HEAT: 122.2206
 CYCLE:   138 TIME:   0.080 TIME LEFT: 16.53W  GRAD.:     1.312 HEAT: 122.2460
 CYCLE:   139 TIME:   0.081 TIME LEFT: 16.53W  GRAD.:     2.429 HEAT: 122.2370
 CYCLE:   140 TIME:   0.078 TIME LEFT: 16.53W  GRAD.:     2.483 HEAT: 122.2681
 CYCLE:   141 TIME:   0.080 TIME LEFT: 16.53W  GRAD.:     2.105 HEAT: 122.3343
 CYCLE:   142 TIME:   0.081 TIME LEFT: 16.53W  GRAD.:     2.942 HEAT: 122.2938
 CYCLE:   143 TIME:   0.075 TIME LEFT: 16.53W  GRAD.:     2.952 HEAT: 122.2685
 CYCLE:   144 TIME:   0.076 TIME LEFT: 16.53W  GRAD.:     3.321 HEAT: 122.2687
 CYCLE:   145 TIME:   0.077 TIME LEFT: 16.53W  GRAD.:     3.336 HEAT: 122.2077
 CYCLE:   146 TIME:   0.076 TIME LEFT: 16.53W  GRAD.:     3.100 HEAT: 122.2408
 CYCLE:   147 TIME:   0.076 TIME LEFT: 16.53W  GRAD.:     3.613 HEAT: 122.2536
 CYCLE:   148 TIME:   0.076 TIME LEFT: 16.53W  GRAD.:     3.477 HEAT: 122.2401
 CYCLE:   149 TIME:   0.076 TIME LEFT: 16.53W  GRAD.:     2.411 HEAT: 122.2751
 CYCLE:   150 TIME:   0.080 TIME LEFT: 16.53W  GRAD.:     2.789 HEAT: 122.2666
 CYCLE:   151 TIME:   0.081 TIME LEFT: 16.53W  GRAD.:     6.935 HEAT: 122.1429
 CYCLE:   152 TIME:   0.075 TIME LEFT: 16.53W  GRAD.:     5.244 HEAT: 122.1545
 CYCLE:   153 TIME:   0.076 TIME LEFT: 16.53W  GRAD.:     5.292 HEAT: 122.1057
 CYCLE:   154 TIME:   0.081 TIME LEFT: 16.53W  GRAD.:    56.483 HEAT: 123.0925
 CYCLE:   155 TIME:   0.077 TIME LEFT: 16.53W  GRAD.:     5.274 HEAT: 122.1121
 CYCLE:   156 TIME:   0.102 TIME LEFT: 16.53W  GRAD.:     5.000 HEAT: 122.0964
 CYCLE:   157 TIME:   0.088 TIME LEFT: 16.53W  GRAD.:     6.446 HEAT: 122.0125
 CYCLE:   158 TIME:   0.079 TIME LEFT: 16.53W  GRAD.:     6.866 HEAT: 122.0128
 CYCLE:   159 TIME:   0.080 TIME LEFT: 16.53W  GRAD.:     4.913 HEAT: 122.0245
 CYCLE:   160 TIME:   0.078 TIME LEFT: 16.53W  GRAD.:     4.955 HEAT: 121.9980
 CYCLE:   161 TIME:   0.080 TIME LEFT: 16.53W  GRAD.:     6.144 HEAT: 121.9285
 CYCLE:   162 TIME:   0.080 TIME LEFT: 16.53W  GRAD.:     7.580 HEAT: 122.0797
 CYCLE:   163 TIME:   0.088 TIME LEFT: 16.53W  GRAD.:     4.119 HEAT: 121.9489
 CYCLE:   164 TIME:   0.083 TIME LEFT: 16.53W  GRAD.:     6.339 HEAT: 121.9443
 CYCLE:   165 TIME:   0.077 TIME LEFT: 16.53W  GRAD.:     3.294 HEAT: 121.9516
 CYCLE:   166 TIME:   0.076 TIME LEFT: 16.53W  GRAD.:     3.352 HEAT: 121.9051
 CYCLE:   167 TIME:   0.077 TIME LEFT: 16.53W  GRAD.:     2.106 HEAT: 121.9359
 CYCLE:   168 TIME:   0.076 TIME LEFT: 16.53W  GRAD.:     1.408 HEAT: 121.9544
 CYCLE:   169 TIME:   0.081 TIME LEFT: 16.53W  GRAD.:     1.521 HEAT: 121.9604
 CYCLE:   170 TIME:   0.081 TIME LEFT: 16.53W  GRAD.:     1.335 HEAT: 121.9870
 CYCLE:   171 TIME:   0.076 TIME LEFT: 16.53W  GRAD.:     1.094 HEAT: 121.9673
 CYCLE:   172 TIME:   0.076 TIME LEFT: 16.53W  GRAD.:     1.033 HEAT: 121.9695
 CYCLE:   173 TIME:   0.079 TIME LEFT: 16.53W  GRAD.:     1.032 HEAT: 121.9712
 CYCLE:   174 TIME:   0.081 TIME LEFT: 16.53W  GRAD.:     1.084 HEAT: 121.9766
 CYCLE:   175 TIME:   0.081 TIME LEFT: 16.53W  GRAD.:     1.220 HEAT: 122.0087
 CYCLE:   176 TIME:   0.076 TIME LEFT: 16.53W  GRAD.:     1.103 HEAT: 121.9825
 CYCLE:   177 TIME:   0.076 TIME LEFT: 16.53W  GRAD.:     1.099 HEAT: 121.9812
 CYCLE:   178 TIME:   0.079 TIME LEFT: 16.53W  GRAD.:     0.892 HEAT: 121.9685
 CYCLE:   179 TIME:   0.076 TIME LEFT: 16.53W  GRAD.:     1.090 HEAT: 121.9715
 CYCLE:   180 TIME:   0.081 TIME LEFT: 16.53W  GRAD.:     1.610 HEAT: 121.9734
 CYCLE:   181 TIME:   0.076 TIME LEFT: 16.53W  GRAD.:     1.210 HEAT: 121.9696
 CYCLE:   182 TIME:   0.076 TIME LEFT: 16.53W  GRAD.:     1.234 HEAT: 121.9692
 CYCLE:   183 TIME:   0.076 TIME LEFT: 16.53W  GRAD.:     1.051 HEAT: 121.9651
 CYCLE:   184 TIME:   0.079 TIME LEFT: 16.53W  GRAD.:     1.157 HEAT: 121.8797
 CYCLE:   185 TIME:   0.078 TIME LEFT: 16.53W  GRAD.:     0.974 HEAT: 121.8654
 CYCLE:   186 TIME:   0.076 TIME LEFT: 16.53W  GRAD.:     0.644 HEAT: 121.8655
 CYCLE:   187 TIME:   0.076 TIME LEFT: 16.53W  GRAD.:     0.574 HEAT: 121.8658
 CYCLE:   188 TIME:   0.076 TIME LEFT: 16.53W  GRAD.:     0.345 HEAT: 121.8859
 CYCLE:   189 TIME:   0.081 TIME LEFT: 16.53W  GRAD.:     2.155 HEAT: 121.9383
 CYCLE:   190 TIME:   0.080 TIME LEFT: 16.53W  GRAD.:     0.322 HEAT: 121.8955
 CYCLE:   191 TIME:   0.074 TIME LEFT: 16.53W  GRAD.:     0.260 HEAT: 121.8947
 CYCLE:   192 TIME:   0.076 TIME LEFT: 16.53W  GRAD.:     0.797 HEAT: 121.8834
 CYCLE:   193 TIME:   0.076 TIME LEFT: 16.53W  GRAD.:     0.819 HEAT: 121.8870
 CYCLE:   194 TIME:   0.078 TIME LEFT: 16.53W  GRAD.:     0.448 HEAT: 121.8997
 CYCLE:   195 TIME:   0.076 TIME LEFT: 16.53W  GRAD.:     0.293 HEAT: 121.9009
 CYCLE:   196 TIME:   0.076 TIME LEFT: 16.53W  GRAD.:     0.256 HEAT: 121.9025
 CYCLE:   197 TIME:   0.073 TIME LEFT: 16.53W  GRAD.:     0.279 HEAT: 121.9030
 CYCLE:   198 TIME:   0.076 TIME LEFT: 16.53W  GRAD.:     0.224 HEAT: 121.9030
 CYCLE:   199 TIME:   0.076 TIME LEFT: 16.53W  GRAD.:     0.202 HEAT: 121.9000
 CYCLE:   200 TIME:   0.076 TIME LEFT: 16.53W  GRAD.:     0.135 HEAT: 121.8992

     RMS GRADIENT =  0.13511  IS LESS THAN CUTOFF =  0.15000



 -------------------------------------------------------------------------------
 PM6 T=31535772 DUMP=4320 XYZ EPS=78.40 RSOLV=1.30 MULLIK SYBYL +
 CHARGE=1 RELSCF=0.1 LET DDMIN=0.0 GNORM=0.15
 SJ000001185-1_T001S001I002C02: Geometry optimization step



     GEOMETRY OPTIMISED USING EIGENVECTOR FOLLOWING (EF).     
     SCF FIELD WAS ACHIEVED                                   


                               PM6     CALCULATION
                                                       MOPAC2009 (Version: 9.015L)
                                                       Tue Sep  6 16:24:56 2011




          FINAL HEAT OF FORMATION =        121.89921 KCAL =     510.02631 KJ
          VAN DER WAALS AREA      =        312.02 SQUARE ANGSTROMS


          TOTAL ENERGY            =      -4131.49785 EV
          ELECTRONIC ENERGY       =      -6077.50425 EV  POINT GROUP:     C1  
          CORE-CORE REPULSION     =       1946.00640 EV
          DIELECTRIC ENERGY       =         -2.95311 EV
          COSMO AREA              =        312.02 SQUARE ANGSTROMS
          COSMO VOLUME            =        348.76 CUBIC ANGSTROMS

          IONIZATION POTENTIAL    =         10.306219 EV
          HOMO LUMO ENERGIES (EV) =        -10.306 -4.010
          NO. OF FILLED LEVELS    =         60
          MOLECULAR WEIGHT        =        333.280

          MOLECULAR DIMENSIONS (Angstroms)

            Atom       Atom       Distance
            H    28    O    34    12.47420
            H    19    H    17     6.83535
            H    30    H    24     3.40407


          SCF CALCULATIONS        =        202
          COMPUTATION TIME        =         16.052 SECONDS




   ATOM   CHEMICAL          X               Y              Z
  NUMBER   SYMBOL      (ANGSTROMS)     (ANGSTROMS)    (ANGSTROMS)
 
     1       N          2.3699582  *    4.168914  *    0.094675  *
     2       C          2.3194998  *    5.563482  *   -0.259421  *
     3       O          1.2366375  *    6.030712  *   -0.567441  *
     4       C          3.5974335  *    6.308825  *   -0.231631  *
     5       C          3.5809561  *    7.659102  *   -0.519470  *
     6       C          4.7936140  *    8.399190  *   -0.518831  *
     7       C          5.9833784  *    7.759805  *   -0.242768  *
     8       C          4.8233266  *    5.637377  *    0.079061  *
     9       C          6.0476560  *    6.361548  *    0.070014  *
    10       C          7.2604416  *    5.665558  *    0.381868  *
    11       C          7.2460522  *    4.324639  *    0.676746  *
    12       C          6.0265663  *    3.599697  *    0.688850  *
    13       C          4.8340426  *    4.243538  *    0.399571  *
    14       C          3.5852279  *    3.462096  *    0.446414  *
    15       O          3.4967286  *    2.289696  *    0.753855  *
    16       H          2.6399833  *    8.179815  *   -0.753712  *
    17       H          4.7571549  *    9.475577  *   -0.748314  *
    18       H          8.2128247  *    6.213169  *    0.382048  *
    19       H          8.1771542  *    3.794645  *    0.910963  *
    20       H          6.0403030  *    2.528187  *    0.933053  *
    21       C          1.1099049  *    3.457781  *    0.135054  *
    22       C          0.7566665  *    2.678790  *    1.186587  *
    23       C         -0.5681146  *    1.967179  *    1.205142  *
    24       H          1.3998762  *    2.520134  *    2.068410  *
    25       O         -0.8853161  *    1.212624  *    2.088188  *
    26       C         -1.4959268  *    2.261110  *    0.036871  *
    27       C         -1.0759962  *    3.044436  *   -0.991283  *
    28       H         -2.4954569  *    1.796060  *    0.076693  *
    29       C          0.2164828  *    3.613186  *   -1.008735  *
    30       H         -1.7453977  *    3.240807  *   -1.854932  *
    31       H          0.5611666  *    4.174071  *   -1.902678  *
    32       N          7.2172248  *    8.586579  *   -0.285051  *
    33       O          7.1348101  *    9.744892  *    0.095438  *
    34       O          8.2482879  *    8.086032  *   -0.706721  *

           Empirical Formula: C18 H9 N2 O5  =    34 atoms



      MOLECULAR POINT GROUP   :   C1  


                  EIGENVALUES  
 -35.82021 -34.22806 -33.71040 -33.15380 -32.77911 -31.91237 -31.71370 -31.18366
 -30.29042 -29.13099 -27.91165 -27.20380 -26.99354 -26.74252 -25.71219 -24.45225
 -23.70913 -23.06638 -22.95784 -22.36700 -22.16667 -20.35190 -19.84340 -19.21050
 -18.84329 -18.67885 -18.56069 -18.27141 -18.14543 -17.89431 -17.33348 -16.99640
 -16.76113 -16.57846 -16.35127 -16.05337 -15.87430 -15.76433 -15.70839 -15.43040
 -14.95694 -14.83763 -14.65280 -14.62579 -14.43083 -13.76222 -13.62370 -13.08215
 -13.04818 -12.63401 -12.54079 -12.44091 -12.30448 -11.95010 -11.89292 -11.76341
 -11.61224 -11.15719 -10.44767 -10.30622  -4.00993  -2.53492  -1.36450  -1.21458
  -1.07560  -0.91216  -0.69155  -0.54775  -0.42019  -0.37847   0.46607   0.66071
   0.79846   1.08173   1.61095   1.76301   1.80308   1.90949   2.01843   2.24705
   2.34317   2.52378   2.66140   2.71103   2.79361   2.97320   3.11841   3.18324
   3.34477   3.38716   3.41147   3.58671   3.62962   3.67542   3.80491   3.86259
   3.99022   4.09716   4.14654   4.22711   4.48228   4.52068   4.60089   4.89410
   4.95762   5.12721   5.18959   5.30097   5.56076


              NET ATOMIC CHARGES AND DIPOLE CONTRIBUTIONS

  ATOM NO.   TYPE          CHARGE      No. of ELECS.   s-Pop       p-Pop       
    1          N          -0.478362        5.4784     1.54749     3.93087
    2          C           0.666768        3.3332     1.07718     2.25605
    3          O          -0.538925        6.5389     1.85437     4.68455
    4          C          -0.211453        4.2115     1.10371     3.10775
    5          C           0.009177        3.9908     1.11907     2.87176
    6          C          -0.107310        4.1073     1.11972     2.98759
    7          C          -0.082654        4.0827     1.11961     2.96304
    8          C           0.146908        3.8531     1.07676     2.77633
    9          C          -0.037952        4.0380     1.08346     2.95450
   10          C          -0.048010        4.0480     1.11910     2.92891
   11          C          -0.202590        4.2026     1.11430     3.08829
   12          C           0.062355        3.9376     1.12179     2.81586
   13          C          -0.285369        4.2854     1.09766     3.18771
   14          C           0.685133        3.3149     1.07563     2.23924
   15          O          -0.532514        6.5325     1.85239     4.68012
   16          H           0.200768        0.7992     0.79923
   17          H           0.212823        0.7872     0.78718
   18          H           0.188960        0.8110     0.81104
   19          H           0.196962        0.8030     0.80304
   20          H           0.185215        0.8148     0.81479
   21          C           0.070064        3.9299     1.07922     2.85072
   22          C          -0.136044        4.1360     1.16662     2.96943
   23          C           0.469750        3.5302     1.11674     2.41351
   24          H           0.238381        0.7616     0.76162
   25          O          -0.341079        6.3411     1.85416     4.48692
   26          C           0.074758        3.9252     1.18462     2.74062
   27          C          -0.312541        4.3125     1.12010     3.19244
   28          H           0.225434        0.7746     0.77457
   29          C           0.334169        3.6658     1.18383     2.48200
   30          H           0.252100        0.7479     0.74790
   31          H           0.222900        0.7771     0.77710
   32          N           0.849018        4.1510     1.30473     2.84625
   33          O          -0.487928        6.4879     1.91896     4.56897
   34          O          -0.488911        6.4889     1.91850     4.57041
 DIPOLE           X         Y         Z       TOTAL
 POINT-CHG.   -14.766    -7.760    -3.666    17.079
 HYBRID        -0.155    -0.136     0.124     0.241
 SUM          -14.921    -7.896    -3.542    17.249


          CARTESIAN COORDINATES 

    NO.       ATOM               X         Y         Z

     1         N                  2.3700    4.1689    0.0947
     2         C                  2.3195    5.5635   -0.2594
     3         O                  1.2366    6.0307   -0.5674
     4         C                  3.5974    6.3088   -0.2316
     5         C                  3.5810    7.6591   -0.5195
     6         C                  4.7936    8.3992   -0.5188
     7         C                  5.9834    7.7598   -0.2428
     8         C                  4.8233    5.6374    0.0791
     9         C                  6.0477    6.3615    0.0700
    10         C                  7.2604    5.6656    0.3819
    11         C                  7.2461    4.3246    0.6767
    12         C                  6.0266    3.5997    0.6889
    13         C                  4.8340    4.2435    0.3996
    14         C                  3.5852    3.4621    0.4464
    15         O                  3.4967    2.2897    0.7539
    16         H                  2.6400    8.1798   -0.7537
    17         H                  4.7572    9.4756   -0.7483
    18         H                  8.2128    6.2132    0.3820
    19         H                  8.1772    3.7946    0.9110
    20         H                  6.0403    2.5282    0.9331
    21         C                  1.1099    3.4578    0.1351
    22         C                  0.7567    2.6788    1.1866
    23         C                 -0.5681    1.9672    1.2051
    24         H                  1.3999    2.5201    2.0684
    25         O                 -0.8853    1.2126    2.0882
    26         C                 -1.4959    2.2611    0.0369
    27         C                 -1.0760    3.0444   -0.9913
    28         H                 -2.4955    1.7961    0.0767
    29         C                  0.2165    3.6132   -1.0087
    30         H                 -1.7454    3.2408   -1.8549
    31         H                  0.5612    4.1741   -1.9027
    32         N                  7.2172    8.5866   -0.2851
    33         O                  7.1348    9.7449    0.0954
    34         O                  8.2483    8.0860   -0.7067


          ATOMIC ORBITAL ELECTRON POPULATIONS

   1.54749   1.11870   1.17347   1.63870   1.07718   0.84026   0.75275   0.66303
   1.85437   1.40711   1.74087   1.53657   1.10371   0.98360   1.01074   1.11341
   1.11907   1.05149   0.95835   0.86192   1.11972   0.94895   1.09384   0.94481
   1.11961   0.92373   0.96758   1.07174   1.07676   0.92997   0.92626   0.92010
   1.08346   0.98395   0.93233   1.03821   1.11910   1.03499   0.99628   0.89763
   1.11430   1.06436   1.00505   1.01887   1.12179   0.93626   1.06281   0.81678
   1.09766   0.99847   1.00449   1.18475   1.07563   0.79530   0.78678   0.65716
   1.85239   1.83531   1.31231   1.53250   0.79923   0.78718   0.81104   0.80304
   0.81479   1.07922   0.88589   0.99393   0.97090   1.16662   1.02098   0.91630
   1.03215   1.11674   0.85533   0.74331   0.81487   0.76162   1.85416   1.74524
   1.32581   1.41587   1.18462   1.05165   0.79164   0.89733   1.12010   1.04396
   1.04086   1.10762   0.77457   1.18383   0.89282   0.63299   0.95619   0.74790
   0.77710   1.30473   0.97737   0.95240   0.91649   1.91896   1.88373   1.15770
   1.52754   1.91850   1.32359   1.73549   1.51133

           MULLIKEN POPULATION ANALYSIS



        MULLIKEN POPULATIONS AND CHARGES

      NO.  ATOM   POPULATION      CHARGE
        1    N     5.604547     -0.604547
        2    C     3.263749      0.736251
        3    O     6.561120     -0.561120
        4    C     4.240961     -0.240961
        5    C     4.030130     -0.030130
        6    C     4.155922     -0.155922
        7    C     4.079090     -0.079090
        8    C     3.828515      0.171485
        9    C     4.040156     -0.040156
       10    C     4.092323     -0.092323
       11    C     4.263406     -0.263406
       12    C     3.972430      0.027570
       13    C     4.316493     -0.316493
       14    C     3.243952      0.756048
       15    O     6.555273     -0.555273
       16    H     0.740320      0.259680
       17    H     0.725347      0.274653
       18    H     0.754496      0.245504
       19    H     0.744376      0.255624
       20    H     0.759409      0.240591
       21    C     3.912984      0.087016
       22    C     4.193834     -0.193834
       23    C     3.512365      0.487635
       24    H     0.693545      0.306455
       25    O     6.362363     -0.362363
       26    C     3.981129      0.018871
       27    C     4.392769     -0.392769
       28    H     0.709732      0.290268
       29    C     3.717299      0.282701
       30    H     0.677139      0.322861
       31    H     0.714093      0.285907
       32    N     4.201882      0.798118
       33    O     6.478724     -0.478724
       34    O     6.480128     -0.480128



 TOTAL CPU TIME:            16.07 SECONDS

 == MOPAC DONE ==
 *******************************************************************************
 ** Site#:  958            For non-commercial use only         Version 9.015L **
 *******************************************************************************
 ** Cite this work as: MOPAC2009, James J. P. Stewart, Stewart Computational  **
 ** Chemistry, Version 9.015L web: HTTP://OpenMOPAC.net                       **
 *******************************************************************************
 **                                                                           **
 **                                MOPAC2009                                  **
 **                                                                           **
 *******************************************************************************

                            PM6 CALCULATION RESULTS


 *******************************************************************************
 *  CALCULATION DONE:                                Tue Sep  6 16:24:56 2011  *
 *  PM6      - The PM6 Hamiltonian to be used
 *  GEO-OK   - OVERRIDE INTERATOMIC DISTANCE CHECK
 *
 *
 *
 *                 CHARGE ON SYSTEM =     1
 *
 *
 *
 *  EPS= 78.400
 *  RSOLV=  1.300
 *  OLDGEO   - PREVIOUS GEOMETRY TO BE USED
 *  T=       - A TIME OF 172800.0 SECONDS REQUESTED
 *  DUMP=N   - RESTART FILE WRITTEN EVERY  4320.000 SECONDS
 *  RELSCF   - DEFAULT SCF CRITERION MULTIPLIED BY   0.100    
 *             (DEFAULT SCFCRT= 0.00010)
 *  THERMO   - THERMODYNAMIC QUANTITIES TO BE CALCULATED
 *******************************************************************************
 PM6 DUMP=4320 RELSCF=0.1 THERMO EPS=78.40 RSOLV=1.30 +
 OLDGEO GEO-OK CHARGE=1
 SJ000001185-1_T001S001I002C02: Free energy calculation

   ATOM   CHEMICAL          X               Y              Z
  NUMBER   SYMBOL      (ANGSTROMS)     (ANGSTROMS)    (ANGSTROMS)
 
     1       N          2.3699582  *    4.168914  *    0.094675  *
     2       C          2.3194998  *    5.563482  *   -0.259421  *
     3       O          1.2366375  *    6.030712  *   -0.567441  *
     4       C          3.5974335  *    6.308825  *   -0.231631  *
     5       C          3.5809561  *    7.659102  *   -0.519470  *
     6       C          4.7936140  *    8.399190  *   -0.518831  *
     7       C          5.9833784  *    7.759805  *   -0.242768  *
     8       C          4.8233266  *    5.637377  *    0.079061  *
     9       C          6.0476560  *    6.361548  *    0.070014  *
    10       C          7.2604416  *    5.665558  *    0.381868  *
    11       C          7.2460522  *    4.324639  *    0.676746  *
    12       C          6.0265663  *    3.599697  *    0.688850  *
    13       C          4.8340426  *    4.243538  *    0.399571  *
    14       C          3.5852279  *    3.462096  *    0.446414  *
    15       O          3.4967286  *    2.289696  *    0.753855  *
    16       H          2.6399833  *    8.179815  *   -0.753712  *
    17       H          4.7571549  *    9.475577  *   -0.748314  *
    18       H          8.2128247  *    6.213169  *    0.382048  *
    19       H          8.1771542  *    3.794645  *    0.910963  *
    20       H          6.0403030  *    2.528187  *    0.933053  *
    21       C          1.1099049  *    3.457781  *    0.135054  *
    22       C          0.7566665  *    2.678790  *    1.186587  *
    23       C         -0.5681146  *    1.967179  *    1.205142  *
    24       H          1.3998762  *    2.520134  *    2.068410  *
    25       O         -0.8853161  *    1.212624  *    2.088188  *
    26       C         -1.4959268  *    2.261110  *    0.036871  *
    27       C         -1.0759962  *    3.044436  *   -0.991283  *
    28       H         -2.4954569  *    1.796060  *    0.076693  *
    29       C          0.2164828  *    3.613186  *   -1.008735  *
    30       H         -1.7453977  *    3.240807  *   -1.854932  *
    31       H          0.5611666  *    4.174071  *   -1.902678  *
    32       N          7.2172248  *    8.586579  *   -0.285051  *
    33       O          7.1348101  *    9.744892  *    0.095438  *
    34       O          8.2482879  *    8.086032  *   -0.706721  *
 


          CARTESIAN COORDINATES 

    NO.       ATOM         X         Y         Z

     1         N        2.3700    4.1689    0.0947
     2         C        2.3195    5.5635   -0.2594
     3         O        1.2366    6.0307   -0.5674
     4         C        3.5974    6.3088   -0.2316
     5         C        3.5810    7.6591   -0.5195
     6         C        4.7936    8.3992   -0.5188
     7         C        5.9834    7.7598   -0.2428
     8         C        4.8233    5.6374    0.0791
     9         C        6.0477    6.3615    0.0700
    10         C        7.2604    5.6656    0.3819
    11         C        7.2461    4.3246    0.6767
    12         C        6.0266    3.5997    0.6889
    13         C        4.8340    4.2435    0.3996
    14         C        3.5852    3.4621    0.4464
    15         O        3.4967    2.2897    0.7539
    16         H        2.6400    8.1798   -0.7537
    17         H        4.7572    9.4756   -0.7483
    18         H        8.2128    6.2132    0.3820
    19         H        8.1772    3.7946    0.9110
    20         H        6.0403    2.5282    0.9331
    21         C        1.1099    3.4578    0.1351
    22         C        0.7567    2.6788    1.1866
    23         C       -0.5681    1.9672    1.2051
    24         H        1.3999    2.5201    2.0684
    25         O       -0.8853    1.2126    2.0882
    26         C       -1.4959    2.2611    0.0369
    27         C       -1.0760    3.0444   -0.9913
    28         H       -2.4955    1.7961    0.0767
    29         C        0.2165    3.6132   -1.0087
    30         H       -1.7454    3.2408   -1.8549
    31         H        0.5612    4.1741   -1.9027
    32         N        7.2172    8.5866   -0.2851
    33         O        7.1348    9.7449    0.0954
    34         O        8.2483    8.0860   -0.7067

 General Reference for PM6:
 "Optimization of Parameters for Semiempirical Methods V: Modification of NDDO Approximations
 and Application to 70 Elements", J. J. P. Stewart, J. Mol. Mod., 13, 1173-1213 (2007)
 URL: http://www.springerlink.com/content/ar33482301010477/fulltext.pdf

           Empirical Formula: C18 H9 N2 O5  =    34 atoms



      MOLECULAR POINT GROUP   :   C1  


      RHF CALCULATION, NO. OF DOUBLY OCCUPIED LEVELS =   60

  SCF CRITERION =    0.1000E-04


          HEAT OF FORMATION =     121.900506 KCALS/MOLE


          INTERNAL COORDINATE DERIVATIVES

   NUMBER  ATOM       BOND         ANGLE      DIHEDRAL

     1       N
     2       C     -0.047247
     3       O     -0.035493     0.001745
     4       C     -0.002004     0.129030    -0.020953
     5       C     -0.018762    -0.014804     0.065956
     6       C      0.206482    -0.134538     0.019136
     7       C     -0.094255     0.020846    -0.033701
     8       C      0.143545     0.084827     0.053634
     9       C      0.028049    -0.212946     0.015209
    10       C     -0.037519     0.013837     0.009907
    11       C      0.007050     0.008051    -0.026985
    12       C     -0.066492     0.004569     0.008267
    13       C      0.028792    -0.039646    -0.019020
    14       C      0.099361     0.165860     0.032635
    15       O     -0.112488    -0.203477    -0.018890
    16       H     -0.050125     0.105350    -0.001823
    17       H      0.007889    -0.031098    -0.040705
    18       H     -0.025020    -0.001778     0.027373
    19       H     -0.003267    -0.007811     0.049719
    20       H      0.021869     0.012603    -0.006572
    21       C     -0.022779    -0.021079    -0.022984
    22       C      0.003093     0.009375    -0.044814
    23       C     -0.020968    -0.029565     0.030386
    24       H      0.000072     0.076443    -0.056770
    25       O      0.041724    -0.079827     0.150929
    26       C     -0.055155     0.032169     0.081085
    27       C     -0.012690     0.030078    -0.105287
    28       H     -0.062238    -0.059857     0.084053
    29       C      0.038767    -0.064244    -0.091879
    30       H      0.049703    -0.054040     0.041902
    31       H     -0.044205     0.121100     0.033171
    32       N      0.015890     0.001485    -0.042686
    33       O      0.032784     0.040422    -0.183929
    34       O      0.043230     0.031790     0.055728


          GRADIENT NORM =   0.68963


          TIME FOR SCF CALCULATION =    0.14

          TIME FOR DERIVATIVES     =    0.05

          MOLECULAR WEIGHT =  333.28



          ROTATIONAL CONSTANTS IN CM(-1)

          A =    0.01989931   B =    0.00387835   C =    0.00336832



           PRINCIPAL MOMENTS OF INERTIA IN UNITS OF 10**(-40)*GRAM-CM**2

          A =     1406.7209   B =     7217.7066   C =     8310.6026


          ORIENTATION OF MOLECULE IN FORCE CALCULATION

    NO.       ATOM         X         Y         Z

     1          N      -0.8305    1.2225   -0.0449
     2          C       0.6092    1.2225   -0.0449
     3          O       1.1755    2.3019   -0.0449
     4          C       1.2796   -0.0965   -0.0590
     5          C       2.6589   -0.1370   -0.0119
     6          C       3.3331   -1.3871   -0.0422
     7          C       2.6042   -2.5538   -0.1317
     8          C       0.5098   -1.3018   -0.1291
     9          C       1.1706   -2.5607   -0.1744
    10          C       0.3772   -3.7514   -0.2470
    11          C      -0.9937   -3.6823   -0.2799
    12          C      -1.6562   -2.4286   -0.2327
    13          C      -0.9196   -1.2575   -0.1543
    14          C      -1.6443    0.0240   -0.0823
    15          O      -2.8524    0.1514   -0.0507
    16          H       3.2538    0.7871    0.0472
    17          H       4.4335   -1.3964   -0.0007
    18          H       0.8742   -4.7306   -0.2790
    19          H      -1.5973   -4.5960   -0.3396
    20          H      -2.7546   -2.3996   -0.2551
    21          C      -1.4851    2.5107    0.0396
    22          C      -2.4859    2.7529    0.9211
    23          C      -3.1334    4.1083    0.9955
    24          H      -2.8790    1.9935    1.6177
    25          O      -4.0703    4.3395    1.7155
    26          C      -2.5288    5.1825    0.1052
    27          C      -1.5319    4.8707   -0.7642
    28          H      -2.9540    6.1957    0.2031
    29          C      -1.0219    3.5577   -0.8659
    30          H      -1.1058    5.6501   -1.4301
    31          H      -0.2709    3.3157   -1.6469
    32          N       3.3722   -3.8246   -0.1861
    33          O       4.4035   -3.8902    0.4661
    34          O       2.9549   -4.7364   -0.8832


    FIRST DERIVATIVES WILL BE USED IN THE CALCULATION OF SECOND DERIVATIVES

          ESTIMATED TIME TO COMPLETE CALCULATION =       38.75 SECONDS

    FOR POINT-GROUP C1   THERE ARE   1 UNIQUE SYMMETRY FUNCTIONS.

 STEP:   1 TIME =     0.16 SECS, INTEGRAL =      0.16 TIME LEFT: 172799.65
 STEP:   2 TIME =     0.15 SECS, INTEGRAL =      0.31 TIME LEFT: 172799.50
 STEP:   3 TIME =     0.15 SECS, INTEGRAL =      0.47 TIME LEFT: 172799.34
 STEP:   4 TIME =     0.16 SECS, INTEGRAL =      0.62 TIME LEFT: 172799.19
 STEP:   5 TIME =     0.16 SECS, INTEGRAL =      0.78 TIME LEFT: 172799.03
 STEP:   6 TIME =     0.15 SECS, INTEGRAL =      0.94 TIME LEFT: 172798.87
 STEP:   7 TIME =     0.15 SECS, INTEGRAL =      1.08 TIME LEFT: 172798.73
 STEP:   8 TIME =     0.14 SECS, INTEGRAL =      1.23 TIME LEFT: 172798.58
 STEP:   9 TIME =     0.14 SECS, INTEGRAL =      1.37 TIME LEFT: 172798.44
 STEP:  10 TIME =     0.16 SECS, INTEGRAL =      1.53 TIME LEFT: 172798.28
 STEP:  11 TIME =     0.16 SECS, INTEGRAL =      1.69 TIME LEFT: 172798.12
 STEP:  12 TIME =     0.15 SECS, INTEGRAL =      1.85 TIME LEFT: 172797.96
 STEP:  13 TIME =     0.16 SECS, INTEGRAL =      2.01 TIME LEFT: 172797.80
 STEP:  14 TIME =     0.16 SECS, INTEGRAL =      2.16 TIME LEFT: 172797.65
 STEP:  15 TIME =     0.15 SECS, INTEGRAL =      2.31 TIME LEFT: 172797.50
 STEP:  16 TIME =     0.14 SECS, INTEGRAL =      2.46 TIME LEFT: 172797.35
 STEP:  17 TIME =     0.16 SECS, INTEGRAL =      2.62 TIME LEFT: 172797.19
 STEP:  18 TIME =     0.15 SECS, INTEGRAL =      2.77 TIME LEFT: 172797.04
 STEP:  19 TIME =     0.16 SECS, INTEGRAL =      2.93 TIME LEFT: 172796.88
 STEP:  20 TIME =     0.16 SECS, INTEGRAL =      3.09 TIME LEFT: 172796.72
 STEP:  21 TIME =     0.15 SECS, INTEGRAL =      3.25 TIME LEFT: 172796.56
 STEP:  22 TIME =     0.16 SECS, INTEGRAL =      3.41 TIME LEFT: 172796.40
 STEP:  23 TIME =     0.16 SECS, INTEGRAL =      3.56 TIME LEFT: 172796.25
 STEP:  24 TIME =     0.15 SECS, INTEGRAL =      3.71 TIME LEFT: 172796.10
 STEP:  25 TIME =     0.16 SECS, INTEGRAL =      3.87 TIME LEFT: 172795.94
 STEP:  26 TIME =     0.15 SECS, INTEGRAL =      4.03 TIME LEFT: 172795.78
 STEP:  27 TIME =     0.15 SECS, INTEGRAL =      4.18 TIME LEFT: 172795.63
 STEP:  28 TIME =     0.16 SECS, INTEGRAL =      4.34 TIME LEFT: 172795.47
 STEP:  29 TIME =     0.16 SECS, INTEGRAL =      4.49 TIME LEFT: 172795.32
 STEP:  30 TIME =     0.15 SECS, INTEGRAL =      4.64 TIME LEFT: 172795.17
 STEP:  31 TIME =     0.16 SECS, INTEGRAL =      4.80 TIME LEFT: 172795.01
 STEP:  32 TIME =     0.15 SECS, INTEGRAL =      4.96 TIME LEFT: 172794.85
 STEP:  33 TIME =     0.15 SECS, INTEGRAL =      5.11 TIME LEFT: 172794.70
 STEP:  34 TIME =     0.15 SECS, INTEGRAL =      5.25 TIME LEFT: 172794.56
 STEP:  35 TIME =     0.16 SECS, INTEGRAL =      5.42 TIME LEFT: 172794.39
 STEP:  36 TIME =     0.15 SECS, INTEGRAL =      5.57 TIME LEFT: 172794.24
 STEP:  37 TIME =     0.16 SECS, INTEGRAL =      5.73 TIME LEFT: 172794.08
 STEP:  38 TIME =     0.17 SECS, INTEGRAL =      5.89 TIME LEFT: 172793.92
 STEP:  39 TIME =     0.15 SECS, INTEGRAL =      6.05 TIME LEFT: 172793.76
 STEP:  40 TIME =     0.15 SECS, INTEGRAL =      6.20 TIME LEFT: 172793.61
 STEP:  41 TIME =     0.15 SECS, INTEGRAL =      6.36 TIME LEFT: 172793.45
 STEP:  42 TIME =     0.15 SECS, INTEGRAL =      6.51 TIME LEFT: 172793.30
 STEP:  43 TIME =     0.15 SECS, INTEGRAL =      6.66 TIME LEFT: 172793.15
 STEP:  44 TIME =     0.15 SECS, INTEGRAL =      6.81 TIME LEFT: 172793.00
 STEP:  45 TIME =     0.15 SECS, INTEGRAL =      6.95 TIME LEFT: 172792.86
 STEP:  46 TIME =     0.14 SECS, INTEGRAL =      7.10 TIME LEFT: 172792.71
 STEP:  47 TIME =     0.14 SECS, INTEGRAL =      7.24 TIME LEFT: 172792.57
 STEP:  48 TIME =     0.14 SECS, INTEGRAL =      7.38 TIME LEFT: 172792.43
 STEP:  49 TIME =     0.14 SECS, INTEGRAL =      7.52 TIME LEFT: 172792.29
 STEP:  50 TIME =     0.14 SECS, INTEGRAL =      7.66 TIME LEFT: 172792.15
 STEP:  51 TIME =     0.14 SECS, INTEGRAL =      7.80 TIME LEFT: 172792.01
 STEP:  52 TIME =     0.14 SECS, INTEGRAL =      7.94 TIME LEFT: 172791.87
 STEP:  53 TIME =     0.14 SECS, INTEGRAL =      8.08 TIME LEFT: 172791.73
 STEP:  54 TIME =     0.14 SECS, INTEGRAL =      8.22 TIME LEFT: 172791.59
 STEP:  55 TIME =     0.14 SECS, INTEGRAL =      8.36 TIME LEFT: 172791.45
 STEP:  56 TIME =     0.14 SECS, INTEGRAL =      8.50 TIME LEFT: 172791.31
 STEP:  57 TIME =     0.14 SECS, INTEGRAL =      8.64 TIME LEFT: 172791.17
 STEP:  58 TIME =     0.14 SECS, INTEGRAL =      8.78 TIME LEFT: 172791.03
 STEP:  59 TIME =     0.14 SECS, INTEGRAL =      8.92 TIME LEFT: 172790.89
 STEP:  60 TIME =     0.14 SECS, INTEGRAL =      9.06 TIME LEFT: 172790.75
 STEP:  61 TIME =     0.15 SECS, INTEGRAL =      9.21 TIME LEFT: 172790.60
 STEP:  62 TIME =     0.15 SECS, INTEGRAL =      9.37 TIME LEFT: 172790.44
 STEP:  63 TIME =     0.16 SECS, INTEGRAL =      9.53 TIME LEFT: 172790.28
 STEP:  64 TIME =     0.15 SECS, INTEGRAL =      9.68 TIME LEFT: 172790.13
 STEP:  65 TIME =     0.15 SECS, INTEGRAL =      9.83 TIME LEFT: 172789.98
 STEP:  66 TIME =     0.15 SECS, INTEGRAL =      9.98 TIME LEFT: 172789.83
 STEP:  67 TIME =     0.15 SECS, INTEGRAL =     10.13 TIME LEFT: 172789.68
 STEP:  68 TIME =     0.15 SECS, INTEGRAL =     10.28 TIME LEFT: 172789.53
 STEP:  69 TIME =     0.15 SECS, INTEGRAL =     10.44 TIME LEFT: 172789.37
 STEP:  70 TIME =     0.15 SECS, INTEGRAL =     10.58 TIME LEFT: 172789.23
 STEP:  71 TIME =     0.14 SECS, INTEGRAL =     10.72 TIME LEFT: 172789.09
 STEP:  72 TIME =     0.14 SECS, INTEGRAL =     10.87 TIME LEFT: 172788.94
 STEP:  73 TIME =     0.14 SECS, INTEGRAL =     11.01 TIME LEFT: 172788.80
 STEP:  74 TIME =     0.15 SECS, INTEGRAL =     11.16 TIME LEFT: 172788.65
 STEP:  75 TIME =     0.14 SECS, INTEGRAL =     11.30 TIME LEFT: 172788.51
 STEP:  76 TIME =     0.15 SECS, INTEGRAL =     11.46 TIME LEFT: 172788.35
 STEP:  77 TIME =     0.15 SECS, INTEGRAL =     11.61 TIME LEFT: 172788.20
 STEP:  78 TIME =     0.16 SECS, INTEGRAL =     11.77 TIME LEFT: 172788.04
 STEP:  79 TIME =     0.19 SECS, INTEGRAL =     11.96 TIME LEFT: 172787.85
 STEP:  80 TIME =     0.18 SECS, INTEGRAL =     12.14 TIME LEFT: 172787.67
 STEP:  81 TIME =     0.16 SECS, INTEGRAL =     12.31 TIME LEFT: 172787.50
 STEP:  82 TIME =     0.15 SECS, INTEGRAL =     12.45 TIME LEFT: 172787.36
 STEP:  83 TIME =     0.14 SECS, INTEGRAL =     12.59 TIME LEFT: 172787.22
 STEP:  84 TIME =     0.14 SECS, INTEGRAL =     12.74 TIME LEFT: 172787.07
 STEP:  85 TIME =     0.15 SECS, INTEGRAL =     12.88 TIME LEFT: 172786.93
 STEP:  86 TIME =     0.16 SECS, INTEGRAL =     13.04 TIME LEFT: 172786.77
 STEP:  87 TIME =     0.15 SECS, INTEGRAL =     13.19 TIME LEFT: 172786.62
 STEP:  88 TIME =     0.15 SECS, INTEGRAL =     13.34 TIME LEFT: 172786.47
 STEP:  89 TIME =     0.14 SECS, INTEGRAL =     13.48 TIME LEFT: 172786.33
 STEP:  90 TIME =     0.14 SECS, INTEGRAL =     13.62 TIME LEFT: 172786.19
 STEP:  91 TIME =     0.14 SECS, INTEGRAL =     13.76 TIME LEFT: 172786.05
 STEP:  92 TIME =     0.14 SECS, INTEGRAL =     13.91 TIME LEFT: 172785.90
 STEP:  93 TIME =     0.18 SECS, INTEGRAL =     14.09 TIME LEFT: 172785.72
 STEP:  94 TIME =     0.18 SECS, INTEGRAL =     14.27 TIME LEFT: 172785.54
 STEP:  95 TIME =     0.16 SECS, INTEGRAL =     14.43 TIME LEFT: 172785.38
 STEP:  96 TIME =     0.15 SECS, INTEGRAL =     14.58 TIME LEFT: 172785.23
 STEP:  97 TIME =     0.15 SECS, INTEGRAL =     14.73 TIME LEFT: 172785.08
 STEP:  98 TIME =     0.14 SECS, INTEGRAL =     14.87 TIME LEFT: 172784.94
 STEP:  99 TIME =     0.14 SECS, INTEGRAL =     15.01 TIME LEFT: 172784.80
 STEP: 100 TIME =     0.14 SECS, INTEGRAL =     15.16 TIME LEFT: 172784.65
 STEP: 101 TIME =     0.14 SECS, INTEGRAL =     15.30 TIME LEFT: 172784.51
 STEP: 102 TIME =     0.15 SECS, INTEGRAL =     15.45 TIME LEFT: 172784.36

(To convert to Hartree/Bohr^2, multiply by (10^(-21) x N x a0^2)/(4.184 x 627.51) = 0.0642)


           FORCE MATRIX IN MILLIDYNES/ANGSTROM


                  N  1       C  2       O  3       C  4       C  5       C  6
 ------------------------------------------------------------------------------
     N    1  14.052835
     C    2   3.365244  16.186875
     O    3   2.163108  10.239526  12.560428
     C    4   0.851953   3.536895   1.296370  15.320280
     C    5   0.079859   1.004247   0.115935   6.206739  14.165313
     C    6   0.025386   0.134713   0.018629   1.928783   4.779269  14.144143
     C    7   0.034980   0.238907   0.044891   1.258218   2.011405   6.195716
     C    8   0.108224   0.773409   0.098488   4.485425   1.902437   1.146383
     C    9   0.027370   0.078965   0.028501   1.448866   1.229793   1.908243
     C   10   0.003874   0.013509   0.006983   0.471828   0.531293   0.616909
     C   11   0.041260   0.043619   0.022527   0.498559   0.499803   0.562723
     C   12   0.094608   0.118854   0.052612   0.529801   0.436451   0.510678
     C   13   0.886350   0.138382   0.107733   1.303407   0.453802   0.438234
     C   14   3.114546   1.544278   0.455085   0.085401   0.070503   0.012382
     O   15   2.098455   0.423769   0.209022   0.085660   0.031454   0.011392
     H   16   0.021692   0.107773   0.027731   0.664522   3.408716   0.620560
     H   17   0.009452   0.029646   0.012115   0.067278   0.622868   3.364615
     H   18   0.009823   0.014293   0.008300   0.007954   0.012515   0.014443
     H   19   0.008170   0.010661   0.007699   0.010845   0.009316   0.013876
     H   20   0.024313   0.020721   0.012986   0.012987   0.018372   0.017363
     C   21   4.328017   0.966650   0.161465   0.106249   0.016385   0.008256
     C   22   1.169913   0.197168   0.063762   0.030947   0.005814   0.002853
     C   23   0.329795   0.210314   0.072714   0.032141   0.006998   0.003372
     H   24   0.075078   0.052633   0.019845   0.008936   0.001627   0.000770
     O   25   0.115837   0.076754   0.027250   0.014765   0.003108   0.001737
     C   26   0.040344   0.044156   0.042594   0.008726   0.001979   0.000997
     C   27   0.100319   0.094693   0.107207   0.023680   0.005611   0.002381
     H   28   0.015741   0.015363   0.010413   0.003122   0.000646   0.000488
     C   29   0.933559   0.219735   0.116737   0.026957   0.007258   0.002224
     H   30   0.017126   0.012950   0.006721   0.002476   0.000555   0.000417
     H   31   0.034501   0.119540   0.046493   0.009598   0.003260   0.000759
     N   32   0.059334   0.284259   0.083801   0.254537   0.192117   1.055553
     O   33   0.020748   0.072589   0.028931   0.047383   0.040478   0.142159
     O   34   0.017493   0.058268   0.022317   0.033966   0.046930   0.121750


                  C  7       C  8       C  9       C 10       C 11       C 12
 ------------------------------------------------------------------------------
     C    7  14.766654
     C    8   1.513845  15.314184
     C    9   4.177336   5.007552  14.826764
     C   10   1.406864   1.495212   4.368479  14.350705
     C   11   0.586942   1.143022   1.828600   6.597869  14.249158
     C   12   0.461679   1.865585   0.964904   2.025877   4.780157  14.074477
     C   13   0.411807   4.553524   1.315056   1.168041   2.007322   5.922767
     C   14   0.059022   0.845972   0.177867   0.039862   0.191580   1.179397
     O   15   0.027467   0.098086   0.039045   0.011523   0.044763   0.151141
     H   16   0.072836   0.099669   0.025260   0.017881   0.016895   0.016421
     H   17   0.686904   0.018726   0.094212   0.017965   0.014748   0.007320
     H   18   0.021832   0.064155   0.624542   3.391649   0.654474   0.120948
     H   19   0.013182   0.009486   0.104461   0.687965   3.422254   0.662489
     H   20   0.020977   0.094863   0.027853   0.081213   0.606407   3.425107
     C   21   0.010516   0.017158   0.009498   0.003543   0.009975   0.021343
     C   22   0.005017   0.004336   0.003025   0.001416   0.002801   0.007191
     C   23   0.006273   0.004074   0.004986   0.002156   0.004508   0.011123
     H   24   0.001311   0.001770   0.001363   0.000458   0.001542   0.003547
     O   25   0.002197   0.002435   0.002245   0.001234   0.001783   0.005126
     C   26   0.001415   0.001184   0.001162   0.000744   0.001002   0.002685
     C   27   0.004161   0.002753   0.002917   0.001204   0.002823   0.006839
     H   28   0.000653   0.000590   0.000570   0.000505   0.000530   0.001087
     C   29   0.004215   0.006163   0.002383   0.001044   0.000971   0.005364
     H   30   0.000571   0.000321   0.000209   0.000152   0.000350   0.000927
     H   31   0.001831   0.002152   0.001226   0.000516   0.000759   0.001579
     N   32   2.924353   0.099771   0.827342   0.067369   0.075572   0.094620
     O   33   1.248843   0.020026   0.131592   0.011982   0.019171   0.013450
     O   34   1.271212   0.017025   0.084859   0.092205   0.030862   0.024627


                  C 13       C 14       O 15       H 16       H 17       H 18
 ------------------------------------------------------------------------------
     C   13  15.209113
     C   14   3.514118  16.224589
     O   15   1.352366  10.456286  12.781575
     H   16   0.010904   0.020881   0.012358   4.162527
     H   17   0.009790   0.013710   0.008918   0.024312   4.123112
     H   18   0.047731   0.046421   0.015258   0.002655   0.003351   4.172186
     H   19   0.068289   0.027500   0.011898   0.003382   0.002951   0.037029
     H   20   0.641441   0.117245   0.033510   0.003573   0.004283   0.014436
     C   21   0.099402   0.936314   0.131148   0.005595   0.002588   0.002502
     C   22   0.021537   0.149615   0.081496   0.002582   0.001452   0.001090
     C   23   0.036681   0.228196   0.077690   0.003183   0.001709   0.001541
     H   24   0.009934   0.083052   0.032224   0.000930   0.000424   0.000555
     O   25   0.016270   0.076731   0.025478   0.001587   0.000894   0.000735
     C   26   0.007086   0.026292   0.013513   0.000586   0.000240   0.000327
     C   27   0.022565   0.068075   0.039945   0.002054   0.000968   0.000868
     H   28   0.003314   0.015395   0.006889   0.000228   0.000099   0.000195
     C   29   0.009509   0.112417   0.070589   0.002064   0.001020   0.000483
     H   30   0.003135   0.013782   0.005822   0.000220   0.000068   0.000158
     H   31   0.006083   0.032827   0.013283   0.001065   0.000577   0.000494
     N   32   0.085960   0.104340   0.054150   0.034617   0.126397   0.258275
     O   33   0.024508   0.037317   0.021384   0.013849   0.034438   0.052456
     O   34   0.023987   0.030312   0.016185   0.013890   0.035327   0.188801


                  H 19       H 20       C 21       C 22       C 23       H 24
 ------------------------------------------------------------------------------
     H   19   4.242830
     H   20   0.023467   4.157083
     C   21   0.001983   0.004978  15.218342
     C   22   0.000757   0.001681   7.680003  14.581760
     C   23   0.001004   0.002833   1.129278   3.192545  16.155178
     H   24   0.000350   0.000908   0.608925   3.350224   0.587109   4.041904
     O   25   0.000466   0.001524   0.113778   1.400091  11.612997   0.042584
     C   26   0.000311   0.000386   0.286245   0.804297   3.287880   0.070194
     C   27   0.000731   0.001652   1.357858   0.307650   1.216379   0.102223
     H   28   0.000088   0.000230   0.073391   0.068784   0.559416   0.020432
     C   29   0.000515   0.001027   3.592734   1.350325   1.368836   0.208078
     H   30   0.000066   0.000192   0.079375   0.019584   0.126334   0.011518
     H   31   0.000401   0.000687   0.590405   0.073965   0.045302   0.029005
     N   32   0.017295   0.014252   0.020458   0.011648   0.015189   0.003538
     O   33   0.007503   0.007374   0.006672   0.003933   0.004865   0.001269
     O   34   0.006623   0.006099   0.005668   0.003439   0.004296   0.001181


                  O 25       C 26       C 27       H 28       C 29       H 30
 ------------------------------------------------------------------------------
     O   25  13.647374
     C   26   1.258476  14.079009
     C   27   0.207185   7.321815  13.849082
     H   28   0.045096   3.392085   0.551383   4.010799
     C   29   0.196209   1.681609   4.657995   0.210188  12.080313
     H   30   0.038408   0.704020   3.269895   0.041588   0.697837   4.101572
     H   31   0.024612   0.100202   0.524592   0.032477   3.375854   0.034173
     N   32   0.006029   0.004513   0.009765   0.000853   0.007597   0.001021
     O   33   0.002560   0.001826   0.003206   0.000583   0.002974   0.000405
     O   34   0.001735   0.001519   0.003606   0.000438   0.002060   0.000460


                  H 31       N 32       O 33       O 34
 ------------------------------------------------------
     H   31   4.018744
     N   32   0.003711  17.343338
     O   33   0.001385   8.785507  11.871486
     O   34   0.001185   8.692875   2.881765  11.754028


          HEAT OF FORMATION =     121.900506 KCALS/MOLE

          ZERO POINT ENERGY     139.788 KCAL/MOL

         NOTE: SYSTEM IS NOT A GROUND STATE, THEREFORE ZERO POINT
         ENERGY IS NOT MEANINGFULL. ZERO POINT ENERGY PRINTED
         DOES NOT INCLUDE THE  2 IMAGINARY FREQUENCIES


           NORMAL COORDINATE ANALYSIS (Total motion = 1 Angstrom)


   Root No.       1         2         3         4         5         6         7         8

                 1 A       2 A       3 A       4 A       5 A       6 A       7 A       8 A   

                -102.9     -34.4      28.4      45.8      50.7      69.1      86.1     134.0
  
           1    0.0019   -0.0044   -0.0182   -0.0101   -0.0033   -0.0134    0.0051    0.0010
           2    0.0035   -0.0017   -0.0121   -0.0068   -0.0030   -0.0085   -0.0005    0.0034
           3   -0.0019   -0.0197    0.0002   -0.0059    0.0193    0.0046    0.0199   -0.0689
           4    0.0014   -0.0043   -0.0182   -0.0105   -0.0032   -0.0132    0.0043    0.0014
           5   -0.0008    0.0026   -0.0046   -0.0029   -0.0022   -0.0050    0.0026    0.0068
           6    0.0014   -0.0369   -0.0044    0.0116    0.0047    0.0204    0.0276   -0.0004
           7    0.0053   -0.0086   -0.0266   -0.0134   -0.0038   -0.0174    0.0009   -0.0034
           8   -0.0030    0.0049    0.0003   -0.0014   -0.0018   -0.0023    0.0042    0.0089
           9    0.0146   -0.0553   -0.0176    0.0160   -0.0105    0.0624    0.0543    0.0705
          10   -0.0023   -0.0018   -0.0117   -0.0078   -0.0021   -0.0076    0.0040    0.0023
          11   -0.0035    0.0037   -0.0008   -0.0017   -0.0016   -0.0006    0.0020    0.0067
          12   -0.0120   -0.0272    0.0071    0.0214    0.0078   -0.0147    0.0024   -0.0072
          13   -0.0025   -0.0018   -0.0118   -0.0086   -0.0025   -0.0060    0.0046    0.0020
          14   -0.0046    0.0050    0.0060    0.0015   -0.0010    0.0064    0.0002    0.0047
          15   -0.0199   -0.0244    0.0146    0.0427    0.0177   -0.0471   -0.0171   -0.0006
          16   -0.0067   -0.0007   -0.0057   -0.0049   -0.0018   -0.0010    0.0031    0.0014
          17   -0.0057    0.0047    0.0095    0.0038   -0.0005    0.0094   -0.0006    0.0036
          18   -0.0247   -0.0070    0.0138    0.0381    0.0154   -0.0501   -0.0256    0.0049
          19   -0.0061    0.0000    0.0005   -0.0005    0.0001    0.0015    0.0008    0.0004
          20   -0.0093    0.0041    0.0060    0.0024   -0.0004    0.0060    0.0001    0.0041
          21   -0.0154    0.0011    0.0072    0.0172   -0.0043   -0.0228   -0.0136    0.0094
          22   -0.0030   -0.0007   -0.0063   -0.0044   -0.0006   -0.0037    0.0023    0.0022
          23   -0.0028    0.0023   -0.0044   -0.0030   -0.0017   -0.0032    0.0028    0.0061
          24   -0.0167   -0.0192    0.0067    0.0065   -0.0063   -0.0085    0.0000   -0.0064
          25   -0.0069    0.0006    0.0003   -0.0005    0.0006    0.0016    0.0007    0.0003
          26   -0.0064    0.0028   -0.0011   -0.0012   -0.0006   -0.0003    0.0022    0.0051
          27   -0.0185   -0.0103    0.0073    0.0082   -0.0237   -0.0125   -0.0067    0.0108
          28   -0.0173    0.0031    0.0062    0.0028    0.0016    0.0068   -0.0003    0.0001
          29    0.0005    0.0012   -0.0049   -0.0029    0.0008   -0.0041    0.0028    0.0042
          30   -0.0227   -0.0116    0.0069    0.0007   -0.0562   -0.0067   -0.0067    0.0262
          31   -0.0168    0.0031    0.0059    0.0029    0.0018    0.0064   -0.0003    0.0006
          32    0.0078   -0.0011   -0.0116   -0.0060    0.0009   -0.0099    0.0033    0.0033
          33   -0.0290   -0.0167    0.0053   -0.0112   -0.0650    0.0042   -0.0019    0.0085
          34   -0.0104    0.0013   -0.0006   -0.0007    0.0005    0.0011    0.0009    0.0015
          35    0.0101   -0.0020   -0.0150   -0.0076   -0.0009   -0.0126    0.0038    0.0042
          36   -0.0277   -0.0188    0.0039   -0.0186   -0.0341    0.0086    0.0020   -0.0155
          37   -0.0028   -0.0008   -0.0067   -0.0044   -0.0006   -0.0042    0.0020    0.0027
          38    0.0044   -0.0007   -0.0112   -0.0059   -0.0023   -0.0088    0.0028    0.0035
          39   -0.0194   -0.0193    0.0046   -0.0102   -0.0011    0.0014    0.0026   -0.0156
          40    0.0001   -0.0029   -0.0136   -0.0082   -0.0016   -0.0095    0.0027    0.0026
          41    0.0056   -0.0022   -0.0146   -0.0070   -0.0053   -0.0112    0.0032    0.0014
          42   -0.0139   -0.0164    0.0024   -0.0205    0.0470   -0.0007   -0.0004   -0.0053
          43    0.0001   -0.0029   -0.0140   -0.0087   -0.0004   -0.0100    0.0026    0.0033
          44    0.0072   -0.0037   -0.0191   -0.0076   -0.0098   -0.0159    0.0079   -0.0047
          45   -0.0179   -0.0095    0.0027   -0.0408    0.1064   -0.0065   -0.0185    0.0648
          46   -0.0006   -0.0024   -0.0164   -0.0117   -0.0033   -0.0093    0.0063    0.0030
          47   -0.0058    0.0058    0.0088    0.0025   -0.0011    0.0097   -0.0006    0.0040
          48   -0.0205   -0.0337    0.0189    0.0609    0.0287   -0.0651   -0.0230   -0.0001
          49   -0.0059   -0.0010   -0.0054   -0.0050   -0.0023   -0.0003    0.0034    0.0013
          50   -0.0071    0.0056    0.0148    0.0064   -0.0006    0.0144   -0.0015    0.0028
          51   -0.0276    0.0003    0.0166    0.0491    0.0298   -0.0685   -0.0378    0.0046
          52   -0.0376    0.0053    0.0109    0.0053    0.0016    0.0115   -0.0013   -0.0012
          53   -0.0091    0.0023   -0.0026   -0.0018    0.0013   -0.0015    0.0025    0.0027
          54   -0.0198   -0.0091    0.0081    0.0057   -0.0726   -0.0124   -0.0113    0.0505
          55   -0.0209    0.0047    0.0106    0.0056    0.0028    0.0099   -0.0011    0.0010
          56    0.0106   -0.0020   -0.0147   -0.0075    0.0019   -0.0124    0.0038    0.0027
          57   -0.0328   -0.0178    0.0045   -0.0154   -0.0889    0.0082   -0.0015    0.0146
          58   -0.0100    0.0013   -0.0008   -0.0005    0.0006    0.0007    0.0009    0.0019
          59    0.0171   -0.0038   -0.0208   -0.0103   -0.0021   -0.0180    0.0050    0.0055
          60   -0.0316   -0.0194    0.0022   -0.0307   -0.0331    0.0163    0.0039   -0.0290
          61    0.0030   -0.0052   -0.0145   -0.0095   -0.0023   -0.0098    0.0024   -0.0018
          62    0.0035   -0.0032   -0.0107   -0.0058   -0.0017   -0.0063   -0.0014    0.0000
          63    0.0061   -0.0072   -0.0072   -0.0103    0.0071    0.0011    0.0116   -0.0544
          64   -0.0001    0.0169   -0.0095    0.0094    0.0007   -0.0270    0.0428    0.0042
          65   -0.0031   -0.0042    0.0033    0.0059    0.0118   -0.0011    0.0177   -0.0183
          66    0.0043    0.0184   -0.0055    0.0079    0.0069   -0.0206    0.0526   -0.0427
          67   -0.0020    0.0188    0.0129    0.0249    0.0022    0.0024    0.0132    0.0103
          68   -0.0044   -0.0041    0.0139    0.0136    0.0137    0.0121    0.0072   -0.0196
          69    0.0100    0.0352   -0.0034    0.0171   -0.0104   -0.0090    0.0113   -0.0017
          70   -0.0016    0.0339   -0.0207    0.0185    0.0017   -0.0559    0.0874    0.0096
          71   -0.0076   -0.0055    0.0081    0.0121    0.0214   -0.0031    0.0379   -0.0329
          72   -0.0013    0.0266   -0.0066    0.0197    0.0180   -0.0392    0.0994   -0.0545
          73   -0.0052    0.0179   -0.0105    0.0631    0.0060    0.0282   -0.0298    0.0145
          74   -0.0098   -0.0113    0.0191    0.0337    0.0255    0.0351   -0.0051   -0.0405
          75    0.0075    0.0361   -0.0358    0.0601   -0.0092    0.0175   -0.0415    0.0102
          76   -0.0006    0.0200    0.0642   -0.0021   -0.0004    0.0086    0.0208    0.0136
          77    0.0015    0.0044    0.0182   -0.0034    0.0004    0.0022    0.0023    0.0023
          78    0.0179    0.0461    0.0359   -0.0215   -0.0279   -0.0171    0.0104    0.0267
          79    0.0028   -0.0052    0.0531   -0.0232   -0.0028    0.0243   -0.0191   -0.0047
          80    0.0078    0.0040    0.0022   -0.0168   -0.0123   -0.0034   -0.0178    0.0158
          81    0.0194    0.0169    0.0283   -0.0409   -0.0257    0.0031   -0.0285   -0.0010
          82   -0.0024    0.0389    0.1030   -0.0012    0.0001    0.0030    0.0513    0.0303
          83    0.0004    0.0096    0.0319   -0.0022    0.0018    0.0017    0.0128    0.0057
          84    0.0222    0.0762    0.0642   -0.0289   -0.0414   -0.0362    0.0359    0.0670
          85    0.0060   -0.0290   -0.0073   -0.0239   -0.0047    0.0213   -0.0434   -0.0149
          86    0.0096   -0.0025   -0.0176   -0.0180   -0.0147   -0.0051   -0.0266    0.0152
          87    0.0148   -0.0178   -0.0119   -0.0309   -0.0094    0.0167   -0.0383   -0.0416
          88    0.0036   -0.0111    0.0835   -0.0402   -0.0031    0.0385   -0.0323   -0.0121
          89    0.0121    0.0088    0.0032   -0.0271   -0.0220   -0.0074   -0.0273    0.0302
          90    0.0249    0.0187    0.0481   -0.0638   -0.0372    0.0073   -0.0482    0.0112
          91    0.0117   -0.0689   -0.0575   -0.0377   -0.0081    0.0401   -0.0945   -0.0349
          92    0.0153   -0.0041   -0.0353   -0.0287   -0.0259   -0.0084   -0.0481    0.0263
          93    0.0183   -0.0535   -0.0509   -0.0398   -0.0096    0.0347   -0.0767   -0.0598
          94    0.0074   -0.0019    0.0084    0.0058    0.0032    0.0049   -0.0025   -0.0081
          95   -0.0004    0.0011    0.0116    0.0075    0.0011    0.0061   -0.0027   -0.0002
          96    0.0215    0.0344   -0.0079   -0.0044    0.0053    0.0074   -0.0019    0.0012
          97    0.0782   -0.0272    0.0198    0.0192   -0.0013   -0.0128   -0.0085   -0.0026
          98    0.0866    0.0014    0.0164    0.0094    0.0079    0.0144   -0.0024   -0.0117
          99   -0.0789    0.0748   -0.0256   -0.0248    0.0140    0.0356    0.0072   -0.0096
         100   -0.0344    0.0177    0.0052   -0.0001    0.0115    0.0230    0.0001   -0.0238
         101   -0.0931   -0.0029    0.0124    0.0102   -0.0052   -0.0010   -0.0056    0.0054
         102    0.1711    0.0284   -0.0072   -0.0043    0.0091    0.0058    0.0003    0.0026


   Root No.       9        10        11        12        13        14        15        16

                 9 A      10 A      11 A      12 A      13 A      14 A      15 A      16 A   

                 149.8     168.8     197.5     201.8     222.2     250.4     279.1     313.1
  
           1    0.0019   -0.0028    0.0075   -0.0053    0.0147   -0.0079    0.0110    0.0031
           2    0.0026   -0.0014    0.0068    0.0134   -0.0020   -0.0004    0.0024    0.0020
           3   -0.0192   -0.0204    0.0073   -0.0025    0.0321   -0.0115    0.0099    0.0126
           4    0.0011   -0.0057    0.0075   -0.0014    0.0141   -0.0074    0.0070   -0.0012
           5   -0.0015   -0.0125   -0.0008   -0.0019    0.0064    0.0002   -0.0144   -0.0015
           6   -0.0010   -0.0096    0.0136   -0.0060    0.0073    0.0190    0.0058    0.0044
           7    0.0059    0.0083    0.0179    0.0092    0.0128   -0.0160    0.0640    0.0060
           8   -0.0041   -0.0194   -0.0069   -0.0087    0.0069    0.0050   -0.0452   -0.0048
           9    0.0097    0.0074   -0.0090    0.0095   -0.0030   -0.0185   -0.0029    0.0029
          10   -0.0044   -0.0169   -0.0011    0.0022    0.0064   -0.0008   -0.0128   -0.0105
          11   -0.0042   -0.0148   -0.0073   -0.0068    0.0037    0.0027   -0.0202   -0.0066
          12    0.0021   -0.0113    0.0311   -0.0170   -0.0046    0.0526    0.0052   -0.0005
          13   -0.0058   -0.0172    0.0002    0.0015    0.0053   -0.0003   -0.0119   -0.0107
          14   -0.0064   -0.0068   -0.0114   -0.0190   -0.0016    0.0011    0.0092   -0.0019
          15    0.0312   -0.0070   -0.0148    0.0069    0.0203    0.0526    0.0086    0.0003
          16   -0.0083   -0.0164   -0.0047    0.0015   -0.0031    0.0032    0.0021   -0.0008
          17   -0.0067   -0.0033   -0.0129   -0.0212   -0.0040    0.0046    0.0228    0.0040
          18    0.0242    0.0026   -0.0278    0.0116    0.0014   -0.0423   -0.0089   -0.0025
          19   -0.0071   -0.0159   -0.0077    0.0087   -0.0100    0.0039   -0.0007    0.0046
          20   -0.0045   -0.0046   -0.0137   -0.0249    0.0013    0.0042    0.0246    0.0011
          21   -0.0200    0.0108    0.0054   -0.0033   -0.0182   -0.0513   -0.0092   -0.0011
          22   -0.0054   -0.0189   -0.0040    0.0091   -0.0004    0.0035   -0.0105   -0.0091
          23   -0.0025   -0.0122   -0.0066   -0.0100    0.0088    0.0023   -0.0160   -0.0070
          24   -0.0151   -0.0058    0.0502   -0.0276   -0.0287    0.0177   -0.0066   -0.0055
          25   -0.0065   -0.0158   -0.0086    0.0081   -0.0089    0.0049    0.0019    0.0039
          26   -0.0028   -0.0120   -0.0098   -0.0141    0.0046    0.0041   -0.0058   -0.0016
          27   -0.0416    0.0142    0.0321   -0.0107   -0.0165   -0.0070   -0.0100   -0.0044
          28   -0.0090   -0.0156   -0.0147    0.0041   -0.0160    0.0111    0.0178    0.0161
          29   -0.0002   -0.0131   -0.0036   -0.0127    0.0062   -0.0014   -0.0180   -0.0094
          30   -0.0547    0.0303   -0.0019    0.0186    0.0275    0.0188   -0.0030   -0.0004
          31   -0.0111   -0.0154   -0.0142    0.0043   -0.0161    0.0120    0.0183    0.0165
          32   -0.0001   -0.0089    0.0065   -0.0050    0.0101   -0.0056   -0.0269   -0.0154
          33    0.0218    0.0065   -0.0293    0.0220    0.0277    0.0135    0.0021    0.0012
          34   -0.0098   -0.0170   -0.0087    0.0088   -0.0091    0.0102    0.0052    0.0043
          35   -0.0011   -0.0066    0.0091   -0.0006    0.0151   -0.0049   -0.0300   -0.0189
          36    0.0706   -0.0247   -0.0082   -0.0084   -0.0184   -0.0191   -0.0018   -0.0015
          37   -0.0060   -0.0195   -0.0035    0.0097   -0.0003    0.0039   -0.0105   -0.0121
          38   -0.0002   -0.0053    0.0027    0.0002    0.0097   -0.0022   -0.0188   -0.0076
          39    0.0209   -0.0193    0.0350   -0.0265   -0.0310   -0.0015   -0.0052   -0.0034
          40   -0.0014   -0.0119    0.0048    0.0086    0.0069   -0.0032    0.0083   -0.0035
          41    0.0037    0.0012    0.0085    0.0033    0.0078   -0.0048   -0.0054    0.0021
          42    0.0016   -0.0096    0.0154   -0.0105   -0.0031   -0.0029    0.0007    0.0015
          43   -0.0011   -0.0096    0.0048    0.0076    0.0081   -0.0043    0.0111    0.0006
          44    0.0090    0.0115    0.0188   -0.0103    0.0215   -0.0193    0.0128    0.0379
          45   -0.0058    0.0163   -0.0092    0.0093    0.0094    0.0018    0.0002    0.0022
          46   -0.0055   -0.0217    0.0049    0.0061    0.0082   -0.0017   -0.0312   -0.0164
          47   -0.0084   -0.0035   -0.0126   -0.0230   -0.0058   -0.0017    0.0211    0.0019
          48    0.0618   -0.0117   -0.0461    0.0247    0.0549    0.1104    0.0226    0.0041
          49   -0.0092   -0.0159   -0.0030    0.0009   -0.0033    0.0050    0.0021   -0.0008
          50   -0.0098   -0.0017   -0.0131   -0.0184   -0.0125    0.0071    0.0261    0.0115
          51    0.0553    0.0018   -0.0646    0.0275    0.0075   -0.0934   -0.0171   -0.0037
          52   -0.0084   -0.0095   -0.0149    0.0021   -0.0174    0.0114    0.0227    0.0208
          53    0.0021   -0.0107   -0.0031   -0.0141    0.0046   -0.0014   -0.0156   -0.0071
          54   -0.1139    0.0567   -0.0156    0.0398    0.0619    0.0391    0.0014    0.0031
          55   -0.0135   -0.0168   -0.0185   -0.0011   -0.0208    0.0137    0.0246    0.0220
          56    0.0004   -0.0084    0.0117   -0.0031    0.0109   -0.0077   -0.0315   -0.0194
          57    0.0382    0.0115   -0.0663    0.0463    0.0621    0.0294    0.0082    0.0042
          58   -0.0112   -0.0165   -0.0080    0.0088   -0.0086    0.0106    0.0049    0.0040
          59   -0.0016   -0.0087    0.0159    0.0008    0.0232   -0.0079   -0.0458   -0.0350
          60    0.1338   -0.0473   -0.0313   -0.0107   -0.0312   -0.0508   -0.0006   -0.0011
          61    0.0044    0.0185   -0.0035   -0.0171   -0.0024    0.0036    0.0043    0.0029
          62    0.0035    0.0081    0.0030    0.0142   -0.0140    0.0068    0.0024    0.0041
          63   -0.0172    0.0049   -0.0164    0.0038    0.0116   -0.0118    0.0016   -0.0080
          64    0.0078    0.0409   -0.0196   -0.0252   -0.0252    0.0171   -0.0141    0.0152
          65   -0.0023    0.0119   -0.0058    0.0242   -0.0234    0.0104    0.0004    0.0154
          66   -0.0117    0.0282   -0.0311   -0.0043   -0.0119    0.0017   -0.0166    0.0040
          67    0.0052    0.0160   -0.0072   -0.0189   -0.0075    0.0064    0.0003   -0.0173
          68   -0.0050    0.0007   -0.0016    0.0330   -0.0171    0.0051    0.0086    0.0028
          69   -0.0012    0.0071   -0.0051    0.0057   -0.0075    0.0004    0.0043   -0.0189
[...]
 RED. MASS   1.5907        C 11 --  C 12          +10.8% ( 47.0%)    91.2%
 EFF. MASS  11.7753

 VIBRATION   79   79A       ATOM PAIR        ENERGY CONTRIBUTION    RADIAL
 FREQ.      1604.44        C  8 --  C  9          +12.2% ( 50.1%)    96.6%
 T-DIPOLE    6.6128        C 12 --  C 13           +9.4% ( 44.0%)    97.4%
 TRAVEL      0.0592        C  4 --  C  5           +9.1% ( 43.3%)    72.3%
 RED. MASS   1.3812        C  8 --  C 13           +8.3% ( 41.3%)     2.1%
 EFF. MASS  11.9848

 VIBRATION   80   80A       ATOM PAIR        ENERGY CONTRIBUTION    RADIAL
 FREQ.      1612.60        C 26 --  C 27          +38.6% ( 91.4%)    99.2%
 T-DIPOLE    6.0007        C 23 --  C 26          +14.5% ( 56.0%)    62.8%
 TRAVEL      0.0595        C 26 --  H 28          +13.0% ( 53.0%)     6.1%
 RED. MASS   4.1997        C 27 --  C 29          +10.9% ( 48.6%)    17.7%
 EFF. MASS  11.8193        C 27 --  H 30          +10.2% ( 47.0%)    13.9%

 VIBRATION   81   81A       ATOM PAIR        ENERGY CONTRIBUTION    RADIAL
 FREQ.      1618.56        N 32 --  O 33          +35.5% ( 84.2%)    89.1%
 T-DIPOLE   10.7222        N 32 --  O 34          +35.3% ( 84.0%)    90.7%
 TRAVEL      0.0538        C  7 --  N 32          +21.1% ( 64.9%)     0.0%
 RED. MASS   6.5414        O 33 --  O 34           +6.3% ( 35.5%)     0.0%
 EFF. MASS  14.3921

 VIBRATION   82   82A       ATOM PAIR        ENERGY CONTRIBUTION    RADIAL
 FREQ.      1653.69        C  4 --  C  5          +11.2% ( 48.0%)    99.0%
 T-DIPOLE    2.7908        C 10 --  C 11          +10.5% ( 46.3%)    99.2%
 TRAVEL      0.0584        C  4 --  C  8           +9.5% ( 44.1%)    50.8%
 RED. MASS   1.3486        C  8 --  C 13           +7.5% ( 39.3%)    87.1%
 EFF. MASS  11.9525

 VIBRATION   83   83A       ATOM PAIR        ENERGY CONTRIBUTION    RADIAL
 FREQ.      1656.55        C 10 --  C 11          +14.9% ( 54.2%)   100.0%
 T-DIPOLE    1.8104        C  6 --  C  7          +13.5% ( 51.7%)    98.4%
 TRAVEL      0.0585        C  4 --  C  5           +6.7% ( 36.5%)    95.5%
 RED. MASS   1.5662        C 11 --  C 12           +6.6% ( 36.0%)    10.6%
 EFF. MASS  11.9049

 VIBRATION   84   84A       ATOM PAIR        ENERGY CONTRIBUTION    RADIAL
 FREQ.      1689.85        C 21 --  C 22          +38.6% ( 91.4%)    98.3%
 T-DIPOLE    3.1768        N  1 --  C 21          +13.5% ( 54.1%)    46.0%
 TRAVEL      0.0579        C 21 --  C 29          +13.3% ( 53.6%)    12.0%
 RED. MASS   4.4117        C 22 --  C 23          +12.0% ( 50.9%)    41.6%
 EFF. MASS  11.9199        C 22 --  H 24          +11.0% ( 48.9%)     8.6%

 VIBRATION   85   85A       ATOM PAIR        ENERGY CONTRIBUTION    RADIAL
 FREQ.      1707.32        C  2 --  O  3          +35.0% ( 81.1%)    98.7%
 T-DIPOLE    9.6804        C 14 --  O 15          +16.9% ( 56.3%)    98.0%
 TRAVEL      0.0543        C  2 --  C  4          +16.0% ( 54.8%)    57.7%
 RED. MASS   3.6659        N  1 --  C  2          +14.9% ( 52.9%)     4.9%
 EFF. MASS  13.3746

 VIBRATION   86   86A       ATOM PAIR        ENERGY CONTRIBUTION    RADIAL
 FREQ.      1755.50        C 14 --  O 15          +33.8% ( 78.0%)    99.7%
 T-DIPOLE    6.6961        C  2 --  O  3          +16.5% ( 54.5%)    99.9%
 TRAVEL      0.0537        C 13 --  C 14          +15.1% ( 52.1%)    39.6%
 RED. MASS   3.4554        N  1 --  C 14          +14.7% ( 51.4%)     9.3%
 EFF. MASS  13.2965

 VIBRATION   87   87A       ATOM PAIR        ENERGY CONTRIBUTION    RADIAL
 FREQ.      1795.16        C 23 --  O 25          +55.0% ( 98.9%)   100.0%
 T-DIPOLE    6.4574        C 23 --  C 26          +21.8% ( 62.3%)    30.2%
 TRAVEL      0.0528        C 22 --  C 23          +21.7% ( 62.1%)    31.3%
 RED. MASS   6.6682        C 21 --  C 22           +0.3% (  7.9%)    92.0%
 EFF. MASS  13.4607

 VIBRATION   88   88A       ATOM PAIR        ENERGY CONTRIBUTION    RADIAL
 FREQ.      2649.03        C 29 --  H 31          +87.8% ( 94.8%)   100.0%
 T-DIPOLE    1.0584        C 27 --  H 30           +7.6% ( 27.8%)    99.9%
 TRAVEL      0.1353        C 22 --  H 24           +2.5% ( 15.8%)   100.0%
 RED. MASS   0.7551        C 27 --  C 29           +1.0% (  9.9%)    11.1%
 EFF. MASS   1.3910

 VIBRATION   89   89A       ATOM PAIR        ENERGY CONTRIBUTION    RADIAL
 FREQ.      2657.07        C 26 --  H 28          +73.6% ( 86.9%)    99.9%
 T-DIPOLE    1.5960        C 22 --  H 24          +14.9% ( 39.1%)    99.9%
 TRAVEL      0.1342        C 27 --  H 30           +8.0% ( 28.7%)    99.9%
 RED. MASS   0.5559        C 29 --  H 31           +1.2% ( 11.0%)   100.0%
 EFF. MASS   1.4093

 VIBRATION   90   90A       ATOM PAIR        ENERGY CONTRIBUTION    RADIAL
 FREQ.      2661.36        C 22 --  H 24          +73.7% ( 86.9%)    99.9%
 T-DIPOLE    2.0364        C 27 --  H 30          +17.4% ( 42.3%)   100.0%
 TRAVEL      0.1340        C 26 --  H 28           +6.5% ( 25.7%)    99.8%
 RED. MASS   0.5638        C 21 --  C 22           +0.9% (  9.6%)    38.1%
 EFF. MASS   1.4114

 VIBRATION   91   91A       ATOM PAIR        ENERGY CONTRIBUTION    RADIAL
 FREQ.      2682.61        C 27 --  H 30          +65.1% ( 81.2%)   100.0%
 T-DIPOLE    1.5792        C 26 --  H 28          +17.3% ( 41.9%)   100.0%
 TRAVEL      0.1324        C 29 --  H 31           +8.6% ( 29.5%)    99.4%
 RED. MASS   0.4528        C 22 --  H 24           +6.5% ( 25.6%)    99.9%
 EFF. MASS   1.4343

 VIBRATION   92   92A       ATOM PAIR        ENERGY CONTRIBUTION    RADIAL
 FREQ.      2691.74        C 10 --  H 18          +79.4% ( 90.1%)   100.0%
 T-DIPOLE    1.5808        C 12 --  H 20          +14.5% ( 38.6%)   100.0%
 TRAVEL      0.1342        C 11 --  H 19           +3.9% ( 20.1%)    99.5%
 RED. MASS   0.6352        C  9 --  C 10           +0.9% (  9.6%)    17.3%
 EFF. MASS   1.3902

 VIBRATION   93   93A       ATOM PAIR        ENERGY CONTRIBUTION    RADIAL
 FREQ.      2695.63        C  5 --  H 16          +66.7% ( 82.6%)   100.0%
 T-DIPOLE    0.9910        C  6 --  H 17          +30.1% ( 55.5%)    99.9%
 TRAVEL      0.1342        C  5 --  C  6           +1.0% ( 10.1%)     1.1%
 RED. MASS   0.5205        C 12 --  H 20           +1.0% ( 10.0%)   100.0%
 EFF. MASS   1.3889

 VIBRATION   94   94A       ATOM PAIR        ENERGY CONTRIBUTION    RADIAL
 FREQ.      2696.41        C 12 --  H 20          +79.1% ( 90.0%)   100.0%
 T-DIPOLE    1.3136        C 10 --  H 18          +11.1% ( 33.7%)    99.9%
 TRAVEL      0.1328        C 11 --  H 19           +4.6% ( 21.8%)   100.0%
 RED. MASS   0.6251        C  6 --  H 17           +2.8% ( 17.1%)   100.0%
 EFF. MASS   1.4174

 VIBRATION   95   95A       ATOM PAIR        ENERGY CONTRIBUTION    RADIAL
 FREQ.      2707.91        C  6 --  H 17          +64.0% ( 80.8%)   100.0%
 T-DIPOLE    2.1560        C  5 --  H 16          +30.4% ( 55.6%)    99.9%
 TRAVEL      0.1325        C 11 --  H 19           +2.1% ( 14.6%)   100.0%
 RED. MASS   0.4908        C  5 --  C  6           +1.2% ( 11.0%)    89.5%
 EFF. MASS   1.4192

 VIBRATION   96   96A       ATOM PAIR        ENERGY CONTRIBUTION    RADIAL
 FREQ.      2722.60        C 11 --  H 19          +87.3% ( 94.3%)   100.0%
 T-DIPOLE    1.4208        C 10 --  H 18           +7.0% ( 26.6%)    99.9%
 TRAVEL      0.1320        C 12 --  H 20           +2.0% ( 14.1%)    98.8%
 RED. MASS   0.7462        C 10 --  C 11           +1.2% ( 10.9%)    55.1%
 EFF. MASS   1.4214

 SYMMETRY NUMBER FOR POINT-GROUP C1  =  1


          SYSTEM IS A GROUND STATE


                                                                                                                                                                                                                                                 
 SJ000001185-1_T001S001I002C02: Free energy calculation                                                                                                                                                                                          


          MOLECULE IS NOT LINEAR

          THERE ARE 96 GENUINE VIBRATIONS IN THIS SYSTEM
          THIS THERMODYNAMICS CALCULATION IS LIMITED TO
          MOLECULES WHICH HAVE NO INTERNAL ROTATIONS




                    CALCULATED THERMODYNAMIC PROPERTIES
                                          *
   TEMP. (K)   PARTITION FUNCTION   H.O.F.    ENTHALPY  HEAT CAPACITY ENTROPY
                                   KCAL/MOL   CAL/MOLE    CAL/K/MOL  CAL/K/MOL


 298.00  VIB.     0.2923D+08                 10578.6693    69.6053    69.6606
         ROT.     0.1036D+08                   888.2813     2.9808    35.0815
         INT.     0.3029D+15                 11466.9506    72.5861   104.7421
         TRA.     0.5882D+28                  1480.4688     4.9680    43.3041
         TOT.                      121.901   12947.4195    77.5541   148.0463

 200.00  VIB.     0.7889D+05                  4835.3000    47.4131    46.5839
         ROT.     0.5697D+07                   596.1620     2.9808    33.8929
         INT.     0.4495D+12                  5431.4619    50.3939    80.4768
         TRA.     0.3234D+28                   993.6033     4.9680    41.3230
         TOT.                      115.378    6425.0652    55.3619   121.7998

 210.00  VIB.     0.1449D+06                  5320.9626    49.7189    48.9530
         ROT.     0.6130D+07                   625.9700     2.9808    34.0383
         INT.     0.8881D+12                  5946.9326    52.6997    82.9913
         TRA.     0.3480D+28                  1043.2834     4.9680    41.5654
         TOT.                      115.943    6990.2161    57.6677   124.5567

 220.00  VIB.     0.2657D+06                  5829.6635    52.0204    51.3191
         ROT.     0.6573D+07                   655.7781     2.9808    34.1770
         INT.     0.1747D+13                  6485.4416    55.0012    85.4961
         TRA.     0.3731D+28                  1092.9636     4.9680    41.7965
         TOT.                      116.531    7578.4052    59.9693   127.2926

 230.00  VIB.     0.4869D+06                  6361.3512    54.3160    53.6822
         ROT.     0.7026D+07                   685.5862     2.9808    34.3095
         INT.     0.3421D+13                  7046.9375    57.2968    87.9916
         TRA.     0.3988D+28                  1142.6437     4.9680    42.0173
         TOT.                      117.143    8189.5812    62.2648   130.0090

 240.00  VIB.     0.8914D+06                  6915.9562    56.6035    56.0422
         ROT.     0.7489D+07                   715.3943     2.9808    34.4363
         INT.     0.6676D+13                  7631.3505    59.5843    90.4785
         TRA.     0.4251D+28                  1192.3239     4.9680    42.2288
         TOT.                      117.777    8823.6744    64.5524   132.7073

 250.00  VIB.     0.1630D+07                  7493.3886    58.8811    58.3991
         ROT.     0.7962D+07                   745.2024     2.9808    34.5580
         INT.     0.1298D+14                  8238.5911    61.8619    92.9571
         TRA.     0.4520D+28                  1242.0041     4.9680    42.4316
         TOT.                      118.434    9480.5951    66.8299   135.3887

 260.00  VIB.     0.2979D+07                  8093.5377    61.1465    60.7526
         ROT.     0.8445D+07                   775.0105     2.9808    34.6749
         INT.     0.2516D+14                  8868.5483    64.1273    95.4275
         TRA.     0.4794D+28                  1291.6842     4.9680    42.6264
         TOT.                      119.113   10160.2325    69.0953   138.0540

 270.00  VIB.     0.5440D+07                  8716.2709    63.3975    63.1026
         ROT.     0.8937D+07                   804.8186     2.9808    34.7874
         INT.     0.4861D+14                  9521.0895    66.3783    97.8900
         TRA.     0.5073D+28                  1341.3644     4.9680    42.8139
         TOT.                      119.816   10862.4539    71.3464   140.7039

 280.00  VIB.     0.9925D+07                  9361.4333    65.6320    65.4486
         ROT.     0.9438D+07                   834.6267     2.9808    34.8958
         INT.     0.9367D+14                 10196.0600    68.6128   100.3444
         TRA.     0.5357D+28                  1391.0445     4.9680    42.9946
         TOT.                      120.540   11587.1045    73.5808   143.3390

 290.00  VIB.     0.1809D+08                 10028.8481    67.8477    67.7904
         ROT.     0.9948D+07                   864.4348     2.9808    35.0004
         INT.     0.1800D+15                 10893.2830    70.8285   102.7909
         TRA.     0.5647D+28                  1440.7247     4.9680    43.1689
         TOT.                      121.287   12334.0077    75.7965   145.9598

 300.00  VIB.     0.3296D+08                 10718.3173    70.0425    70.1276
         ROT.     0.1047D+08                   894.2429     2.9808    35.1015
         INT.     0.3450D+15                 11612.5602    73.0233   105.2291
         TRA.     0.5941D+28                  1490.4049     4.9680    43.3374
         TOT.                      122.056   13102.9651    77.9913   148.5665

 310.00  VIB.     0.5998D+08                 11429.6219    72.2145    72.4598
         ROT.     0.1099D+08                   924.0510     2.9808    35.1992
         INT.     0.6595D+15                 12353.6729    75.1953   107.6590
         TRA.     0.6241D+28                  1540.0850     4.9680    43.5003
         TOT.                      122.847   13893.7580    80.1633   151.1593

 320.00  VIB.     0.1091D+09                 12162.5238    74.3616    74.7865
         ROT.     0.1153D+08                   953.8591     2.9808    35.2939
         INT.     0.1258D+16                 13116.3829    77.3425   110.0803
         TRA.     0.6545D+28                  1589.7652     4.9680    43.6580
         TOT.                      123.659   14706.1481    82.3105   153.7383

 330.00  VIB.     0.1982D+09                 12916.7665    76.4824    77.1073
         ROT.     0.1208D+08                   983.6672     2.9808    35.3856
         INT.     0.2394D+16                 13900.4337    79.4632   112.4928
         TRA.     0.6855D+28                  1639.4454     4.9680    43.8109
         TOT.                      124.493   15539.8791    84.4312   156.3037

 340.00  VIB.     0.3599D+09                 13692.0772    78.5750    79.4216
         ROT.     0.1263D+08                  1013.4753     2.9808    35.4746
         INT.     0.4545D+16                 14705.5526    81.5558   114.8962
         TRA.     0.7169D+28                  1689.1255     4.9680    43.9592
         TOT.                      125.348   16394.6781    86.5238   158.8554

 350.00  VIB.     0.6530D+09                 14488.1682    80.6382    81.7292
         ROT.     0.1319D+08                  1043.2834     2.9808    35.5610
         INT.     0.8612D+16                 15531.4516    83.6190   117.2901
         TRA.     0.7487D+28                  1738.8057     4.9680    44.1032
         TOT.                      126.223   17270.2573    88.5870   161.3933

 360.00  VIB.     0.1184D+10                 15304.7383    82.6706    84.0294
         ROT.     0.1376D+08                  1073.0915     2.9808    35.6449
         INT.     0.1628D+17                 16377.8298    85.6514   119.6743
         TRA.     0.7810D+28                  1788.4859     4.9680    44.2431
         TOT.                      127.119   18166.3156    90.6195   163.9174

 370.00  VIB.     0.2143D+10                 16141.4749    84.6713    86.3218
         ROT.     0.1434D+08                  1102.8996     2.9808    35.7266
         INT.     0.3073D+17                 17244.3745    87.6521   122.0484
         TRA.     0.8138D+28                  1838.1660     4.9680    44.3793
         TOT.                      128.036   19082.5405    92.6201   166.4277

 380.00  VIB.     0.3877D+10                 16998.0557    86.6393    88.6061
         ROT.     0.1492D+08                  1132.7077     2.9808    35.8061
         INT.     0.5785D+17                 18130.7634    89.6201   124.4122
         TRA.     0.8470D+28                  1887.8462     4.9680    44.5117
         TOT.                      128.972   20018.6096    94.5882   168.9239

 390.00  VIB.     0.7008D+10                 17874.1502    88.5739    90.8816
         ROT.     0.1551D+08                  1162.5158     2.9808    35.8835
         INT.     0.1087D+18                 19036.6660    91.5547   126.7652
         TRA.     0.8807D+28                  1937.5263     4.9680    44.6408
         TOT.                      129.927   20974.1923    96.5228   171.4060

 400.00  VIB.     0.1265D+11                 18769.4209    90.4745    93.1482
         ROT.     0.1611D+08                  1192.3239     2.9808    35.9590
         INT.     0.2039D+18                 19961.7448    93.4553   129.1072
         TRA.     0.9148D+28                  1987.2065     4.9680    44.7666
         TOT.                      130.902   21948.9513    98.4233   173.8737

   *: NOTE: HEATS OF FORMATION ARE RELATIVE TO THE
             ELEMENTS IN THEIR STANDARD STATE AT 298K
              (=  Standard Enthalpy of Formation).
            Heat of Formation at T is calculated as [Escf + (HT - H298.15)-.

            Hvib:  Zero-point energy is not included.
                   Wi < 100 cm-1 are not included.
            Hrot = (3/2)RT
            Htra = (3/2)RT + pV = (5/2)RT

            Heat capacity is Cp, not Cv

                 See Section 8.20 in Manual for further information.   (by TH).

           FORCE CONSTANT IN CARTESIAN COORDINATES (Millidynes/A)

    ATOM   CHEMICAL       X               Y               Z
   NUMBER   SYMBOL  FORCE CONSTANT  FORCE CONSTANT  FORCE CONSTANT

      1       N        9.827547        9.950430        1.156114
      2       C        8.338070       13.433211        2.459162
      3       O        3.814761        9.892511        0.381416
      4       C       11.404208        9.967005        2.233131
      5       C       10.686335        8.971702        2.253334
      6       C        9.253924       10.351625        2.208365
      7       C       10.209934       10.156925        2.527024
      8       C       10.788865       10.562712        2.395844
      9       C       10.351527       10.334240        2.358951
     10       C       11.210971        8.622952        2.266784
     11       C       10.907082        8.895357        2.156737
     12       C        9.317828       10.232742        2.300818
     13       C       10.658181       10.601254        2.199496
     14       C       13.633740        8.019399        2.449579
     15       O       12.606349        1.330985        0.379911
     16       H        1.822724        3.086263        0.366201
     17       H        4.081610        0.831657        0.361010
     18       H        1.595111        3.382547        0.366081
     19       H        1.838701        3.118054        0.388788
     20       H        4.050587        0.830322        0.372959
     21       C        8.102907        8.819086        6.353173
     22       C        7.810310        7.063718        6.791722
     23       C        9.771014        6.464299        7.261553
     24       H        0.995087        2.223686        1.879076
     25       O        8.363095        1.388513        5.097023
     26       C        7.575479        6.943612        6.645314
     27       C        6.671632        8.141914        6.393092
     28       H        1.060462        3.393721        0.556391
     29       C        5.231664        8.458762        5.539162
     30       H        1.070350        2.373758        1.745759
     31       H        1.925837        0.884896        2.209774
     32       N       10.000830        9.784860        7.723223
     33       O        8.270142        1.369136        3.818126
     34       O        2.677126        6.615399        3.983799



 TOTAL CPU TIME:            31.85 SECONDS

 == MOPAC DONE ==
