 *******************************************************************************
 ** Site#:  958            For non-commercial use only         Version 9.015L **
 *******************************************************************************
 ** Cite this work as: MOPAC2009, James J. P. Stewart, Stewart Computational  **
 ** Chemistry, Version 9.015L web: HTTP://OpenMOPAC.net                       **
 *******************************************************************************
 **                                                                           **
 **                                MOPAC2009                                  **
 **                                                                           **
 *******************************************************************************

                            PM6 CALCULATION RESULTS


 *******************************************************************************
 *  CALCULATION DONE:                                Tue Sep  6 16:25:09 2011  *
 *  PM6      - The PM6 Hamiltonian to be used
 *
 *
 *
 *                 CHARGE ON SYSTEM =     0
 *
 *
 *
 *  EPS= 78.400
 *  RSOLV=  1.300
 *  LET      - OVERRIDE SOME SAFETY CHECKS
 *  XYZ      - CARTESIAN COORDINATE SYSTEM TO BE USED
 *  T=       - A TIME OF  0.3E+08 SECONDS REQUESTED
 *  DUMP=N   - RESTART FILE WRITTEN EVERY  4320.000 SECONDS
 *  DDMIN=   - MINIMUM TRUST RADIUS  0.000 ANG/RAD
 *  GNORM=   - EXIT WHEN GRADIENT NORM DROPS BELOW .150    
 *  RELSCF   - DEFAULT SCF CRITERION MULTIPLIED BY   0.100    
 *             (DEFAULT SCFCRT= 0.00010)
 *  SYBYL    - OUTPUT SYBYL FILE
 *  MULLIK   - THE MULLIKEN ANALYSIS TO BE PERFORMED
 *******************************************************************************
 PM6 T=31535743 DUMP=4320 XYZ EPS=78.40 RSOLV=1.30 MULLIK SYBYL +
 CHARGE=0 RELSCF=0.1 LET DDMIN=0.0 GNORM=0.15
 SJ000001479-2_T001S001I001C01: Geometry optimization step

   ATOM   CHEMICAL          X               Y              Z
  NUMBER   SYMBOL      (ANGSTROMS)     (ANGSTROMS)    (ANGSTROMS)
 
     1      Br          0.0020000  *   -0.004000  *    0.002000  *
     2       C         -0.0240000  *    1.887000  *    0.012000  *
     3       C          1.2450000  *    2.643000  *    0.004000  *
     4       O          2.3050000  *    2.050000  *   -0.009000  *
     5       C          1.2250000  *    4.120000  *    0.012000  *
     6      Br          2.8500000  *    5.087000  *    0.001000  *
     7       C          0.0530000  *    4.775000  *    0.026000  *
     8      Br          0.0280000  *    6.666000  *    0.036000  *
     9       C         -1.2150000  *    4.019000  *    0.034000  *
    10       O         -2.2750000  *    4.612000  *    0.047000  *
    11       C         -1.1950000  *    2.542000  *    0.021000  *
    12      Br         -2.8200000  *    1.575000  *    0.024000  *
 


          CARTESIAN COORDINATES 

    NO.       ATOM         X         Y         Z

     1        Br        0.0020   -0.0040    0.0020
     2         C       -0.0240    1.8870    0.0120
     3         C        1.2450    2.6430    0.0040
     4         O        2.3050    2.0500   -0.0090
     5         C        1.2250    4.1200    0.0120
     6        Br        2.8500    5.0870    0.0010
     7         C        0.0530    4.7750    0.0260
     8        Br        0.0280    6.6660    0.0360
     9         C       -1.2150    4.0190    0.0340
    10         O       -2.2750    4.6120    0.0470
    11         C       -1.1950    2.5420    0.0210
    12        Br       -2.8200    1.5750    0.0240

 General Reference for PM6:
 "Optimization of Parameters for Semiempirical Methods V: Modification of NDDO Approximations
 and Application to 70 Elements", J. J. P. Stewart, J. Mol. Mod., 13, 1173-1213 (2007)
 URL: http://www.springerlink.com/content/ar33482301010477/fulltext.pdf

           Empirical Formula: C6 O2 Br4  =    12 atoms



      MOLECULAR POINT GROUP   :   D2h 


      RHF CALCULATION, NO. OF DOUBLY OCCUPIED LEVELS =   32

      Geometry optimization using EF
  SCF CRITERION =    0.1000E-04

          DIAGONAL MATRIX USED AS START HESSIAN

 CYCLE:     1 TIME:   0.073 TIME LEFT: 16.53W  GRAD.:    88.400 HEAT:-6.039261
 CYCLE:     2 TIME:   0.055 TIME LEFT: 16.53W  GRAD.:   546.340 HEAT: 24.33536
 CYCLE:     3 TIME:   0.041 TIME LEFT: 16.53W  GRAD.:   210.898 HEAT: 3.991040
 CYCLE:     4 TIME:   0.040 TIME LEFT: 16.53W  GRAD.:   231.744 HEAT: 1.751431
 CYCLE:     5 TIME:   0.041 TIME LEFT: 16.53W  GRAD.:   295.846 HEAT: 7.734301
 CYCLE:     6 TIME:   0.039 TIME LEFT: 16.53W  GRAD.:    85.659 HEAT:-8.660794
 CYCLE:     7 TIME:   0.039 TIME LEFT: 16.53W  GRAD.:    92.363 HEAT:-9.333720
 CYCLE:     8 TIME:   0.038 TIME LEFT: 16.53W  GRAD.:   230.725 HEAT:-2.744138
 CYCLE:     9 TIME:   0.040 TIME LEFT: 16.53W  GRAD.:   207.475 HEAT:-4.072697
 CYCLE:    10 TIME:   0.042 TIME LEFT: 16.53W  GRAD.:   612.155 HEAT: 41.62606
 CYCLE:    11 TIME:   0.042 TIME LEFT: 16.53W  GRAD.:   398.499 HEAT: 27.21584
 CYCLE:    12 TIME:   0.042 TIME LEFT: 16.53W  GRAD.:   330.955 HEAT: 11.28774
 CYCLE:    13 TIME:   0.042 TIME LEFT: 16.53W  GRAD.:   369.951 HEAT: 17.91557
 CYCLE:    14 TIME:   0.041 TIME LEFT: 16.53W  GRAD.:   352.072 HEAT: 22.50746
 CYCLE:    15 TIME:   0.042 TIME LEFT: 16.53W  GRAD.:   253.588 HEAT: 7.068098
 CYCLE:    16 TIME:   0.042 TIME LEFT: 16.53W  GRAD.:   419.816 HEAT: 17.94516
 CYCLE:    17 TIME:   0.041 TIME LEFT: 16.53W  GRAD.:    91.179 HEAT:-7.099102
 CYCLE:    18 TIME:   0.042 TIME LEFT: 16.53W  GRAD.:   197.058 HEAT:0.9305967
 CYCLE:    19 TIME:   0.041 TIME LEFT: 16.53W  GRAD.:    77.432 HEAT:-8.191720
 CYCLE:    20 TIME:   0.042 TIME LEFT: 16.53W  GRAD.:   117.090 HEAT:-2.899718
 CYCLE:    21 TIME:   0.041 TIME LEFT: 16.53W  GRAD.:    45.321 HEAT:-9.722756
 CYCLE:    22 TIME:   0.041 TIME LEFT: 16.53W  GRAD.:    76.886 HEAT:-7.268474
 CYCLE:    23 TIME:   0.041 TIME LEFT: 16.53W  GRAD.:     9.343 HEAT:-11.05834
 CYCLE:    24 TIME:   0.038 TIME LEFT: 16.53W  GRAD.:    14.872 HEAT:-10.94772
 CYCLE:    25 TIME:   0.037 TIME LEFT: 16.53W  GRAD.:     2.927 HEAT:-11.11543
 CYCLE:    26 TIME:   0.038 TIME LEFT: 16.53W  GRAD.:     7.573 HEAT:-11.07655
 CYCLE:    27 TIME:   0.036 TIME LEFT: 16.53W  GRAD.:     1.129 HEAT:-11.11630
 CYCLE:    28 TIME:   0.038 TIME LEFT: 16.53W  GRAD.:     1.363 HEAT:-11.11976
 CYCLE:    29 TIME:   0.038 TIME LEFT: 16.53W  GRAD.:     0.264 HEAT:-11.11767
 CYCLE:    30 TIME:   0.036 TIME LEFT: 16.53W  GRAD.:     0.300 HEAT:-11.12028
 CYCLE:    31 TIME:   0.036 TIME LEFT: 16.53W  GRAD.:     0.232 HEAT:-11.12031
 CYCLE:    32 TIME:   0.036 TIME LEFT: 16.53W  GRAD.:     0.242 HEAT:-11.11779
 CYCLE:    33 TIME:   0.036 TIME LEFT: 16.53W  GRAD.:     0.237 HEAT:-11.12041
 CYCLE:    34 TIME:   0.038 TIME LEFT: 16.53W  GRAD.:     0.271 HEAT:-11.12050
 CYCLE:    35 TIME:   0.038 TIME LEFT: 16.53W  GRAD.:     0.232 HEAT:-11.12141
 CYCLE:    36 TIME:   0.036 TIME LEFT: 16.53W  GRAD.:     0.230 HEAT:-11.12044
 CYCLE:    37 TIME:   0.036 TIME LEFT: 16.53W  GRAD.:     0.229 HEAT:-11.12045
 CYCLE:    38 TIME:   0.036 TIME LEFT: 16.53W  GRAD.:     0.245 HEAT:-11.12278
 CYCLE:    39 TIME:   0.036 TIME LEFT: 16.53W  GRAD.:     0.231 HEAT:-11.11772
 CYCLE:    40 TIME:   0.036 TIME LEFT: 16.53W  GRAD.:     0.227 HEAT:-11.11776
 CYCLE:    41 TIME:   0.036 TIME LEFT: 16.53W  GRAD.:     0.225 HEAT:-11.11776
 CYCLE:    42 TIME:   0.036 TIME LEFT: 16.53W  GRAD.:     0.228 HEAT:-11.11755
 CYCLE:    43 TIME:   0.037 TIME LEFT: 16.53W  GRAD.:     0.249 HEAT:-11.11729
 CYCLE:    44 TIME:   0.043 TIME LEFT: 16.53W  GRAD.:     0.230 HEAT:-11.12033
 CYCLE:    45 TIME:   0.042 TIME LEFT: 16.53W  GRAD.:     0.226 HEAT:-11.12035
 CYCLE:    46 TIME:   0.042 TIME LEFT: 16.53W  GRAD.:     0.239 HEAT:-11.11995
 CYCLE:    47 TIME:   0.041 TIME LEFT: 16.53W  GRAD.:     0.228 HEAT:-11.12036
 CYCLE:    48 TIME:   0.042 TIME LEFT: 16.53W  GRAD.:     0.228 HEAT:-11.12035
 CYCLE:    49 TIME:   0.042 TIME LEFT: 16.53W  GRAD.:     0.226 HEAT:-11.12036
 CYCLE:    50 TIME:   0.042 TIME LEFT: 16.53W  GRAD.:     0.227 HEAT:-11.12032
 CYCLE:    51 TIME:   0.037 TIME LEFT: 16.53W  GRAD.:     0.244 HEAT:-11.11911
 CYCLE:    52 TIME:   0.036 TIME LEFT: 16.53W  GRAD.:     0.227 HEAT:-11.12036
 CYCLE:    53 TIME:   0.039 TIME LEFT: 16.53W  GRAD.:     0.257 HEAT:-11.11844
 CYCLE:    54 TIME:   0.038 TIME LEFT: 16.53W  GRAD.:     0.226 HEAT:-11.11945
 CYCLE:    55 TIME:   0.035 TIME LEFT: 16.53W  GRAD.:     0.229 HEAT:-11.11949
 CYCLE:    56 TIME:   0.036 TIME LEFT: 16.53W  GRAD.:     0.227 HEAT:-11.11945
 CYCLE:    57 TIME:   0.036 TIME LEFT: 16.53W  GRAD.:     0.228 HEAT:-11.11948
 CYCLE:    58 TIME:   0.037 TIME LEFT: 16.53W  GRAD.:     0.229 HEAT:-11.11681
 CYCLE:    59 TIME:   0.038 TIME LEFT: 16.53W  GRAD.:     0.312 HEAT:-11.11944
 CYCLE:    60 TIME:   0.036 TIME LEFT: 16.53W  GRAD.:     0.229 HEAT:-11.11948
 CYCLE:    61 TIME:   0.037 TIME LEFT: 16.53W  GRAD.:     0.227 HEAT:-11.11943
 CYCLE:    62 TIME:   0.037 TIME LEFT: 16.53W  GRAD.:     0.228 HEAT:-11.11947
 CYCLE:    63 TIME:   0.037 TIME LEFT: 16.53W  GRAD.:     0.269 HEAT:-11.11790
 CYCLE:    64 TIME:   0.036 TIME LEFT: 16.53W  GRAD.:     0.234 HEAT:-11.11831
 CYCLE:    65 TIME:   0.038 TIME LEFT: 16.53W  GRAD.:     0.263 HEAT:-11.11669
 CYCLE:    66 TIME:   0.038 TIME LEFT: 16.53W  GRAD.:     0.226 HEAT:-11.11827
 CYCLE:    67 TIME:   0.036 TIME LEFT: 16.53W  GRAD.:     0.233 HEAT:-11.11820
 CYCLE:    68 TIME:   0.036 TIME LEFT: 16.53W  GRAD.:     0.237 HEAT:-11.11613
 CYCLE:    69 TIME:   0.036 TIME LEFT: 16.53W  GRAD.:     0.226 HEAT:-11.11884
 CYCLE:    70 TIME:   0.036 TIME LEFT: 16.53W  GRAD.:     0.227 HEAT:-11.11569
 CYCLE:    71 TIME:   0.036 TIME LEFT: 16.53W  GRAD.:     0.225 HEAT:-11.11884
 CYCLE:    72 TIME:   0.036 TIME LEFT: 16.53W  GRAD.:     0.237 HEAT:-11.11580
 CYCLE:    73 TIME:   0.038 TIME LEFT: 16.53W  GRAD.:     0.295 HEAT:-11.11731
 CYCLE:    74 TIME:   0.040 TIME LEFT: 16.53W  GRAD.:     0.228 HEAT:-11.11904
 CYCLE:    75 TIME:   0.038 TIME LEFT: 16.53W  GRAD.:     0.238 HEAT:-11.11581
 CYCLE:    76 TIME:   0.037 TIME LEFT: 16.53W  GRAD.:     0.245 HEAT:-11.11103
 CYCLE:    77 TIME:   0.037 TIME LEFT: 16.53W  GRAD.:     0.232 HEAT:-11.11576
 CYCLE:    78 TIME:   0.037 TIME LEFT: 16.53W  GRAD.:     0.232 HEAT:-11.11106
 CYCLE:    79 TIME:   0.036 TIME LEFT: 16.53W  GRAD.:     0.228 HEAT:-11.11109
 CYCLE:    80 TIME:   0.036 TIME LEFT: 16.53W  GRAD.:     0.229 HEAT:-11.11115
 CYCLE:    81 TIME:   0.037 TIME LEFT: 16.53W  GRAD.:     0.251 HEAT:-11.11106
 CYCLE:    82 TIME:   0.036 TIME LEFT: 16.53W  GRAD.:     0.228 HEAT:-11.11112
 CYCLE:    83 TIME:   0.041 TIME LEFT: 16.53W  GRAD.:     1.596 HEAT:-11.09949
 CYCLE:    84 TIME:   0.039 TIME LEFT: 16.53W  GRAD.:     0.293 HEAT:-11.11384
 CYCLE:    85 TIME:   0.041 TIME LEFT: 16.53W  GRAD.:     0.304 HEAT:-11.11390
 CYCLE:    86 TIME:   0.042 TIME LEFT: 16.53W  GRAD.:     0.250 HEAT:-11.11134
 CYCLE:    87 TIME:   0.043 TIME LEFT: 16.53W  GRAD.:     0.246 HEAT:-11.11132
 CYCLE:    88 TIME:   0.050 TIME LEFT: 16.53W  GRAD.:     0.298 HEAT:-11.10664
 CYCLE:    89 TIME:   0.045 TIME LEFT: 16.53W  GRAD.:     0.423 HEAT:-11.10719
 CYCLE:    90 TIME:   0.045 TIME LEFT: 16.53W  GRAD.:    11.077 HEAT:-11.08255
 CYCLE:    91 TIME:   0.040 TIME LEFT: 16.53W  GRAD.:     2.518 HEAT:-11.11350
 CYCLE:    92 TIME:   0.058 TIME LEFT: 16.53W  GRAD.:     3.070 HEAT:-11.10767
 CYCLE:    93 TIME:   0.038 TIME LEFT: 16.53W  GRAD.:     0.732 HEAT:-11.11905
 CYCLE:    94 TIME:   0.041 TIME LEFT: 16.53W  GRAD.:     1.656 HEAT:-11.11136
 CYCLE:    95 TIME:   0.038 TIME LEFT: 16.53W  GRAD.:     1.957 HEAT:-11.11283
 CYCLE:    96 TIME:   0.040 TIME LEFT: 16.53W  GRAD.:     4.419 HEAT:-11.15409
 CYCLE:    97 TIME:   0.039 TIME LEFT: 16.53W  GRAD.:     8.189 HEAT:-11.13020
 CYCLE:    98 TIME:   0.038 TIME LEFT: 16.53W  GRAD.:     7.916 HEAT:-11.12207
 CYCLE:    99 TIME:   0.039 TIME LEFT: 16.53W  GRAD.:    10.141 HEAT:-11.11000
 CYCLE:   100 TIME:   0.038 TIME LEFT: 16.53W  GRAD.:     2.081 HEAT:-11.15738
 CYCLE:   101 TIME:   0.041 TIME LEFT: 16.53W  GRAD.:     3.741 HEAT:-11.10671
 CYCLE:   102 TIME:   0.039 TIME LEFT: 16.53W  GRAD.:     4.295 HEAT:-11.10016
 CYCLE:   103 TIME:   0.039 TIME LEFT: 16.53W  GRAD.:     3.283 HEAT:-11.09320
 CYCLE:   104 TIME:   0.039 TIME LEFT: 16.53W  GRAD.:     6.549 HEAT:-11.10750
 CYCLE:   105 TIME:   0.037 TIME LEFT: 16.53W  GRAD.:     4.213 HEAT:-11.09877
 CYCLE:   106 TIME:   0.037 TIME LEFT: 16.53W  GRAD.:     1.216 HEAT:-11.11361
 CYCLE:   107 TIME:   0.041 TIME LEFT: 16.53W  GRAD.:     3.019 HEAT:-11.11594
 CYCLE:   108 TIME:   0.037 TIME LEFT: 16.53W  GRAD.:     1.397 HEAT:-11.10346
 CYCLE:   109 TIME:   0.039 TIME LEFT: 16.53W  GRAD.:     1.680 HEAT:-11.11458
 CYCLE:   110 TIME:   0.038 TIME LEFT: 16.53W  GRAD.:     0.501 HEAT:-11.11131
 CYCLE:   111 TIME:   0.039 TIME LEFT: 16.53W  GRAD.:     0.411 HEAT:-11.11558
 CYCLE:   112 TIME:   0.037 TIME LEFT: 16.53W  GRAD.:     0.436 HEAT:-11.12245
 CYCLE:   113 TIME:   0.039 TIME LEFT: 16.53W  GRAD.:     0.374 HEAT:-11.12222
 CYCLE:   114 TIME:   0.037 TIME LEFT: 16.53W  GRAD.:     0.347 HEAT:-11.13283
 CYCLE:   115 TIME:   0.036 TIME LEFT: 16.53W  GRAD.:     0.346 HEAT:-11.13224
 CYCLE:   116 TIME:   0.040 TIME LEFT: 16.53W  GRAD.:     0.973 HEAT:-11.11829
 CYCLE:   117 TIME:   0.038 TIME LEFT: 16.53W  GRAD.:     0.398 HEAT:-11.12338
 CYCLE:   118 TIME:   0.037 TIME LEFT: 16.53W  GRAD.:     0.290 HEAT:-11.12324
 CYCLE:   119 TIME:   0.037 TIME LEFT: 16.53W  GRAD.:     0.256 HEAT:-11.12329
 CYCLE:   120 TIME:   0.037 TIME LEFT: 16.53W  GRAD.:     0.266 HEAT:-11.12353
 CYCLE:   121 TIME:   0.038 TIME LEFT: 16.53W  GRAD.:     0.242 HEAT:-11.12251
 CYCLE:   122 TIME:   0.038 TIME LEFT: 16.53W  GRAD.:     0.240 HEAT:-11.12345
 CYCLE:   123 TIME:   0.037 TIME LEFT: 16.53W  GRAD.:     0.956 HEAT:-11.12408
 CYCLE:   124 TIME:   0.039 TIME LEFT: 16.53W  GRAD.:     0.271 HEAT:-11.12520
 CYCLE:   125 TIME:   0.038 TIME LEFT: 16.53W  GRAD.:     0.527 HEAT:-11.12105
 CYCLE:   126 TIME:   0.039 TIME LEFT: 16.53W  GRAD.:     0.246 HEAT:-11.12349
 CYCLE:   127 TIME:   0.036 TIME LEFT: 16.53W  GRAD.:     0.243 HEAT:-11.12345
 CYCLE:   128 TIME:   0.036 TIME LEFT: 16.53W  GRAD.:     0.246 HEAT:-11.12347
 CYCLE:   129 TIME:   0.036 TIME LEFT: 16.53W  GRAD.:     0.241 HEAT:-11.12342
 CYCLE:   130 TIME:   0.037 TIME LEFT: 16.53W  GRAD.:     0.251 HEAT:-11.12348
 CYCLE:   131 TIME:   0.038 TIME LEFT: 16.53W  GRAD.:     0.334 HEAT:-11.12217
 CYCLE:   132 TIME:   0.037 TIME LEFT: 16.53W  GRAD.:     0.241 HEAT:-11.12345
 CYCLE:   133 TIME:   0.038 TIME LEFT: 16.53W  GRAD.:     0.301 HEAT:-11.12350
 CYCLE:   134 TIME:   0.038 TIME LEFT: 16.53W  GRAD.:     0.240 HEAT:-11.12346
 CYCLE:   135 TIME:   0.037 TIME LEFT: 16.53W  GRAD.:     0.241 HEAT:-11.12341
 CYCLE:   136 TIME:   0.036 TIME LEFT: 16.53W  GRAD.:     0.240 HEAT:-11.12344
 CYCLE:   137 TIME:   0.036 TIME LEFT: 16.53W  GRAD.:     0.240 HEAT:-11.12325
 CYCLE:   138 TIME:   0.037 TIME LEFT: 16.53W  GRAD.:     0.246 HEAT:-11.12331
 CYCLE:   139 TIME:   0.039 TIME LEFT: 16.53W  GRAD.:     0.305 HEAT:-11.13034
 CYCLE:   140 TIME:   0.038 TIME LEFT: 16.53W  GRAD.:     0.241 HEAT:-11.12344
 CYCLE:   141 TIME:   0.036 TIME LEFT: 16.53W  GRAD.:     0.241 HEAT:-11.12344
 CYCLE:   142 TIME:   0.036 TIME LEFT: 16.53W  GRAD.:     0.241 HEAT:-11.12347
 CYCLE:   143 TIME:   0.036 TIME LEFT: 16.53W  GRAD.:     0.240 HEAT:-11.12346
 CYCLE:   144 TIME:   0.039 TIME LEFT: 16.53W  GRAD.:     0.389 HEAT:-11.11839
 CYCLE:   145 TIME:   0.038 TIME LEFT: 16.53W  GRAD.:     0.240 HEAT:-11.12344
 CYCLE:   146 TIME:   0.036 TIME LEFT: 16.53W  GRAD.:     0.240 HEAT:-11.12347
 CYCLE:   147 TIME:   0.041 TIME LEFT: 16.53W  GRAD.:     2.809 HEAT:-11.09700
 CYCLE:   148 TIME:   0.038 TIME LEFT: 16.53W  GRAD.:     0.366 HEAT:-11.12787
 CYCLE:   149 TIME:   0.039 TIME LEFT: 16.53W  GRAD.:     0.318 HEAT:-11.12351
 CYCLE:   150 TIME:   0.037 TIME LEFT: 16.53W  GRAD.:     0.247 HEAT:-11.12210
 CYCLE:   151 TIME:   0.038 TIME LEFT: 16.53W  GRAD.:     0.244 HEAT:-11.12347
 CYCLE:   152 TIME:   0.039 TIME LEFT: 16.53W  GRAD.:     0.577 HEAT:-11.12645
 CYCLE:   153 TIME:   0.040 TIME LEFT: 16.53W  GRAD.:     0.245 HEAT:-11.12335
 CYCLE:   154 TIME:   0.036 TIME LEFT: 16.53W  GRAD.:     0.242 HEAT:-11.12339
 CYCLE:   155 TIME:   0.036 TIME LEFT: 16.53W  GRAD.:     0.242 HEAT:-11.12246
 CYCLE:   156 TIME:   0.036 TIME LEFT: 16.53W  GRAD.:     0.240 HEAT:-11.12339
 CYCLE:   157 TIME:   0.040 TIME LEFT: 16.53W  GRAD.:     0.251 HEAT:-11.12329
 CYCLE:   158 TIME:   0.039 TIME LEFT: 16.53W  GRAD.:     0.351 HEAT:-11.12248
 CYCLE:   159 TIME:   0.039 TIME LEFT: 16.53W  GRAD.:     0.240 HEAT:-11.12346
 CYCLE:   160 TIME:   0.036 TIME LEFT: 16.53W  GRAD.:     0.240 HEAT:-11.12344
 CYCLE:   161 TIME:   0.036 TIME LEFT: 16.53W  GRAD.:     0.248 HEAT:-11.12344
 CYCLE:   162 TIME:   0.037 TIME LEFT: 16.53W  GRAD.:     0.261 HEAT:-11.12249
 CYCLE:   163 TIME:   0.036 TIME LEFT: 16.53W  GRAD.:     0.241 HEAT:-11.12249
 CYCLE:   164 TIME:   0.036 TIME LEFT: 16.53W  GRAD.:     0.240 HEAT:-11.12248
 CYCLE:   165 TIME:   0.037 TIME LEFT: 16.53W  GRAD.:     0.246 HEAT:-11.12227
 CYCLE:   166 TIME:   0.039 TIME LEFT: 16.53W  GRAD.:     0.295 HEAT:-11.12360
 CYCLE:   167 TIME:   0.037 TIME LEFT: 16.53W  GRAD.:     0.240 HEAT:-11.12346
 CYCLE:   168 TIME:   0.038 TIME LEFT: 16.53W  GRAD.:     0.254 HEAT:-11.12933
 CYCLE:   169 TIME:   0.039 TIME LEFT: 16.53W  GRAD.:     0.241 HEAT:-11.12342
 CYCLE:   170 TIME:   0.036 TIME LEFT: 16.53W  GRAD.:     0.242 HEAT:-11.12346
 CYCLE:   171 TIME:   0.038 TIME LEFT: 16.53W  GRAD.:     0.287 HEAT:-11.12429
 CYCLE:   172 TIME:   0.039 TIME LEFT: 16.53W  GRAD.:     0.240 HEAT:-11.12348
 CYCLE:   173 TIME:   0.036 TIME LEFT: 16.53W  GRAD.:     0.240 HEAT:-11.12346
 CYCLE:   174 TIME:   0.037 TIME LEFT: 16.53W  GRAD.:     0.240 HEAT:-11.12348
 CYCLE:   175 TIME:   0.036 TIME LEFT: 16.53W  GRAD.:     0.240 HEAT:-11.12345
 CYCLE:   176 TIME:   0.037 TIME LEFT: 16.53W  GRAD.:     0.248 HEAT:-11.12344
 CYCLE:   177 TIME:   0.037 TIME LEFT: 16.53W  GRAD.:     0.277 HEAT:-11.12226
 CYCLE:   178 TIME:   0.036 TIME LEFT: 16.53W  GRAD.:     0.240 HEAT:-11.12344
 CYCLE:   179 TIME:   0.037 TIME LEFT: 16.53W  GRAD.:     0.280 HEAT:-11.13031
 CYCLE:   180 TIME:   0.038 TIME LEFT: 16.53W  GRAD.:     0.240 HEAT:-11.12343
 CYCLE:   181 TIME:   0.038 TIME LEFT: 16.53W  GRAD.:     0.356 HEAT:-11.12210
 CYCLE:   182 TIME:   0.039 TIME LEFT: 16.53W  GRAD.:     0.241 HEAT:-11.12345
 CYCLE:   183 TIME:   0.036 TIME LEFT: 16.53W  GRAD.:     0.240 HEAT:-11.12345
 CYCLE:   184 TIME:   0.036 TIME LEFT: 16.53W  GRAD.:     0.240 HEAT:-11.12345
 CYCLE:   185 TIME:   0.036 TIME LEFT: 16.53W  GRAD.:     0.240 HEAT:-11.12346
 CYCLE:   186 TIME:   0.036 TIME LEFT: 16.53W  GRAD.:     0.243 HEAT:-11.12345
 CYCLE:   187 TIME:   0.037 TIME LEFT: 16.53W  GRAD.:     0.261 HEAT:-11.12345
 CYCLE:   188 TIME:   0.036 TIME LEFT: 16.53W  GRAD.:     0.241 HEAT:-11.12345
 CYCLE:   189 TIME:   0.041 TIME LEFT: 16.53W  GRAD.:     6.345 HEAT:-11.08334
 CYCLE:   190 TIME:   0.038 TIME LEFT: 16.53W  GRAD.:     0.277 HEAT:-11.12251
 CYCLE:   191 TIME:   0.039 TIME LEFT: 16.53W  GRAD.:     0.435 HEAT:-11.12322
 CYCLE:   192 TIME:   0.037 TIME LEFT: 16.53W  GRAD.:     0.313 HEAT:-11.12089
 CYCLE:   193 TIME:   0.039 TIME LEFT: 16.53W  GRAD.:     0.462 HEAT:-11.13028
 CYCLE:   194 TIME:   0.038 TIME LEFT: 16.53W  GRAD.:     0.240 HEAT:-11.12347
 CYCLE:   195 TIME:   0.036 TIME LEFT: 16.53W  GRAD.:     0.240 HEAT:-11.12346
 CYCLE:   196 TIME:   0.036 TIME LEFT: 16.53W  GRAD.:     0.240 HEAT:-11.12346
 CYCLE:   197 TIME:   0.036 TIME LEFT: 16.53W  GRAD.:     0.240 HEAT:-11.12346
 CYCLE:   198 TIME:   0.036 TIME LEFT: 16.53W  GRAD.:     0.244 HEAT:-11.12345
 CYCLE:   199 TIME:   0.036 TIME LEFT: 16.53W  GRAD.:     0.253 HEAT:-11.12345
 CYCLE:   200 TIME:   0.036 TIME LEFT: 16.53W  GRAD.:     0.240 HEAT:-11.12345
 CYCLE:   201 TIME:   0.036 TIME LEFT: 16.53W  GRAD.:     0.242 HEAT:-11.12345
 CYCLE:   202 TIME:   0.036 TIME LEFT: 16.53W  GRAD.:     0.240 HEAT:-11.12345
 CYCLE:   203 TIME:   0.037 TIME LEFT: 16.53W  GRAD.:     0.243 HEAT:-11.12345
 CYCLE:   204 TIME:   0.037 TIME LEFT: 16.53W  GRAD.:     0.255 HEAT:-11.12230
 CYCLE:   205 TIME:   0.036 TIME LEFT: 16.53W  GRAD.:     0.240 HEAT:-11.12345
 CYCLE:   206 TIME:   0.036 TIME LEFT: 16.53W  GRAD.:     0.247 HEAT:-11.12346
 CYCLE:   207 TIME:   0.037 TIME LEFT: 16.53W  GRAD.:     0.244 HEAT:-11.12253
 CYCLE:   208 TIME:   0.038 TIME LEFT: 16.53W  GRAD.:     0.253 HEAT:-11.12346
 CYCLE:   209 TIME:   0.036 TIME LEFT: 16.53W  GRAD.:     0.240 HEAT:-11.12344
 CYCLE:   210 TIME:   0.036 TIME LEFT: 16.53W  GRAD.:     0.249 HEAT:-11.12228
 CYCLE:   211 TIME:   0.036 TIME LEFT: 16.53W  GRAD.:     0.240 HEAT:-11.12345
 CYCLE:   212 TIME:   0.037 TIME LEFT: 16.53W  GRAD.:     0.282 HEAT:-11.12350
 CYCLE:   213 TIME:   0.037 TIME LEFT: 16.53W  GRAD.:     0.240 HEAT:-11.12346
 CYCLE:   214 TIME:   0.037 TIME LEFT: 16.53W  GRAD.:     0.241 HEAT:-11.12321
 CYCLE:   215 TIME:   0.037 TIME LEFT: 16.53W  GRAD.:     0.252 HEAT:-11.12174
 CYCLE:   216 TIME:   0.037 TIME LEFT: 16.53W  GRAD.:     0.244 HEAT:-11.12347
 CYCLE:   217 TIME:   0.036 TIME LEFT: 16.53W  GRAD.:     0.240 HEAT:-11.12346
 CYCLE:   218 TIME:   0.036 TIME LEFT: 16.53W  GRAD.:     0.241 HEAT:-11.12347
 CYCLE:   219 TIME:   0.037 TIME LEFT: 16.53W  GRAD.:     0.241 HEAT:-11.12350
 CYCLE:   220 TIME:   0.037 TIME LEFT: 16.53W  GRAD.:     0.244 HEAT:-11.12341
 CYCLE:   221 TIME:   0.039 TIME LEFT: 16.53W  GRAD.:     0.382 HEAT:-11.12575
 CYCLE:   222 TIME:   0.038 TIME LEFT: 16.53W  GRAD.:     0.240 HEAT:-11.12339
 CYCLE:   223 TIME:   0.038 TIME LEFT: 16.53W  GRAD.:     0.241 HEAT:-11.12340
 CYCLE:   224 TIME:   0.036 TIME LEFT: 16.53W  GRAD.:     0.242 HEAT:-11.12346
 CYCLE:   225 TIME:   0.036 TIME LEFT: 16.53W  GRAD.:     0.239 HEAT:-11.12350
 CYCLE:   226 TIME:   0.036 TIME LEFT: 16.53W  GRAD.:     0.244 HEAT:-11.12327
 CYCLE:   227 TIME:   0.037 TIME LEFT: 16.53W  GRAD.:     0.247 HEAT:-11.12315
 CYCLE:   228 TIME:   0.039 TIME LEFT: 16.53W  GRAD.:     0.476 HEAT:-11.12816
 CYCLE:   229 TIME:   0.039 TIME LEFT: 16.53W  GRAD.:     0.240 HEAT:-11.12342
 CYCLE:   230 TIME:   0.036 TIME LEFT: 16.53W  GRAD.:     0.240 HEAT:-11.12348
 CYCLE:   231 TIME:   0.036 TIME LEFT: 16.53W  GRAD.:     0.242 HEAT:-11.12346
 CYCLE:   232 TIME:   0.036 TIME LEFT: 16.53W  GRAD.:     0.240 HEAT:-11.12346
 CYCLE:   233 TIME:   0.038 TIME LEFT: 16.53W  GRAD.:     0.252 HEAT:-11.12247
 CYCLE:   234 TIME:   0.040 TIME LEFT: 16.53W  GRAD.:     0.335 HEAT:-11.09383
 CYCLE:   235 TIME:   0.038 TIME LEFT: 16.53W  GRAD.:     0.245 HEAT:-11.12351
 CYCLE:   236 TIME:   0.036 TIME LEFT: 16.53W  GRAD.:     0.240 HEAT:-11.12348
 CYCLE:   237 TIME:   0.036 TIME LEFT: 16.53W  GRAD.:     0.285 HEAT:-11.12314
 CYCLE:   238 TIME:   0.036 TIME LEFT: 16.53W  GRAD.:     0.240 HEAT:-11.12344
 CYCLE:   239 TIME:   0.036 TIME LEFT: 16.53W  GRAD.:     0.240 HEAT:-11.12345
 CYCLE:   240 TIME:   0.036 TIME LEFT: 16.53W  GRAD.:     0.240 HEAT:-11.12345
 CYCLE:   241 TIME:   0.036 TIME LEFT: 16.53W  GRAD.:     0.240 HEAT:-11.12346
 CYCLE:   242 TIME:   0.036 TIME LEFT: 16.53W  GRAD.:     0.241 HEAT:-11.12344
 CYCLE:   243 TIME:   0.037 TIME LEFT: 16.53W  GRAD.:     0.241 HEAT:-11.12259
 CYCLE:   244 TIME:   0.038 TIME LEFT: 16.53W  GRAD.:     0.323 HEAT:-11.12263
 CYCLE:   245 TIME:   0.038 TIME LEFT: 16.53W  GRAD.:     0.239 HEAT:-11.12352
 CYCLE:   246 TIME:   0.036 TIME LEFT: 16.53W  GRAD.:     0.241 HEAT:-11.12346
 CYCLE:   247 TIME:   0.041 TIME LEFT: 16.53W  GRAD.:     1.301 HEAT:-11.12725
 CYCLE:   248 TIME:   0.039 TIME LEFT: 16.53W  GRAD.:     0.241 HEAT:-11.12316
 CYCLE:   249 TIME:   0.036 TIME LEFT: 16.53W  GRAD.:     0.246 HEAT:-11.12337
 CYCLE:   250 TIME:   0.036 TIME LEFT: 16.53W  GRAD.:     0.244 HEAT:-11.12335
 CYCLE:   251 TIME:   0.036 TIME LEFT: 16.53W  GRAD.:     0.242 HEAT:-11.12343
 CYCLE:   252 TIME:   0.039 TIME LEFT: 16.53W  GRAD.:     0.241 HEAT:-11.12362
 CYCLE:   253 TIME:   0.039 TIME LEFT: 16.53W  GRAD.:     0.359 HEAT:-11.11907
 CYCLE:   254 TIME:   0.039 TIME LEFT: 16.53W  GRAD.:     0.238 HEAT:-11.12350
 CYCLE:   255 TIME:   0.036 TIME LEFT: 16.53W  GRAD.:     0.241 HEAT:-11.12344
 CYCLE:   256 TIME:   0.037 TIME LEFT: 16.53W  GRAD.:     0.244 HEAT:-11.12313
 CYCLE:   257 TIME:   0.037 TIME LEFT: 16.53W  GRAD.:     0.241 HEAT:-11.12348
 CYCLE:   258 TIME:   0.037 TIME LEFT: 16.53W  GRAD.:     0.247 HEAT:-11.12353
 CYCLE:   259 TIME:   0.038 TIME LEFT: 16.53W  GRAD.:     0.352 HEAT:-11.11928
 CYCLE:   260 TIME:   0.039 TIME LEFT: 16.53W  GRAD.:     0.240 HEAT:-11.12351
 CYCLE:   261 TIME:   0.039 TIME LEFT: 16.53W  GRAD.:     0.240 HEAT:-11.12346
 CYCLE:   262 TIME:   0.042 TIME LEFT: 16.53W  GRAD.:     0.247 HEAT:-11.12245
 CYCLE:   263 TIME:   0.045 TIME LEFT: 16.53W  GRAD.:     0.240 HEAT:-11.12346
 CYCLE:   264 TIME:   0.037 TIME LEFT: 16.53W  GRAD.:     0.250 HEAT:-11.12353
 CYCLE:   265 TIME:   0.043 TIME LEFT: 16.53W  GRAD.:     0.303 HEAT:-11.12247
 CYCLE:   266 TIME:   0.042 TIME LEFT: 16.53W  GRAD.:     0.240 HEAT:-11.12347
 CYCLE:   267 TIME:   0.037 TIME LEFT: 16.53W  GRAD.:     0.241 HEAT:-11.12344
 CYCLE:   268 TIME:   0.036 TIME LEFT: 16.53W  GRAD.:     0.239 HEAT:-11.12344
 CYCLE:   269 TIME:   0.037 TIME LEFT: 16.53W  GRAD.:     0.246 HEAT:-11.12217
 CYCLE:   270 TIME:   0.038 TIME LEFT: 16.53W  GRAD.:     0.302 HEAT:-11.12372
 CYCLE:   271 TIME:   0.039 TIME LEFT: 16.53W  GRAD.:     0.240 HEAT:-11.12343
 CYCLE:   272 TIME:   0.036 TIME LEFT: 16.53W  GRAD.:     0.240 HEAT:-11.12344
 CYCLE:   273 TIME:   0.036 TIME LEFT: 16.53W  GRAD.:     0.240 HEAT:-11.12341
 CYCLE:   274 TIME:   0.036 TIME LEFT: 16.53W  GRAD.:     0.241 HEAT:-11.12345
 CYCLE:   275 TIME:   0.036 TIME LEFT: 16.53W  GRAD.:     0.241 HEAT:-11.12335
 CYCLE:   276 TIME:   0.037 TIME LEFT: 16.53W  GRAD.:     0.268 HEAT:-11.12264
 CYCLE:   277 TIME:   0.036 TIME LEFT: 16.53W  GRAD.:     0.246 HEAT:-11.12351
 CYCLE:   278 TIME:   0.039 TIME LEFT: 16.53W  GRAD.:     0.379 HEAT:-11.12433
 CYCLE:   279 TIME:   0.038 TIME LEFT: 16.53W  GRAD.:     0.240 HEAT:-11.12348
 CYCLE:   280 TIME:   0.036 TIME LEFT: 16.53W  GRAD.:     0.240 HEAT:-11.12348
 CYCLE:   281 TIME:   0.036 TIME LEFT: 16.53W  GRAD.:     0.240 HEAT:-11.12346
 CYCLE:   282 TIME:   0.037 TIME LEFT: 16.53W  GRAD.:     0.240 HEAT:-11.12347
 CYCLE:   283 TIME:   0.036 TIME LEFT: 16.53W  GRAD.:     0.240 HEAT:-11.12343
 CYCLE:   284 TIME:   0.037 TIME LEFT: 16.53W  GRAD.:     0.251 HEAT:-11.12357
 CYCLE:   285 TIME:   0.039 TIME LEFT: 16.53W  GRAD.:     0.396 HEAT:-11.12270
 CYCLE:   286 TIME:   0.038 TIME LEFT: 16.53W  GRAD.:     0.240 HEAT:-11.12348
 CYCLE:   287 TIME:   0.036 TIME LEFT: 16.53W  GRAD.:     0.239 HEAT:-11.12346
 CYCLE:   288 TIME:   0.036 TIME LEFT: 16.53W  GRAD.:     0.240 HEAT:-11.12347
 CYCLE:   289 TIME:   0.036 TIME LEFT: 16.53W  GRAD.:     0.239 HEAT:-11.12345
 CYCLE:   290 TIME:   0.036 TIME LEFT: 16.53W  GRAD.:     0.241 HEAT:-11.12348
 CYCLE:   291 TIME:   0.036 TIME LEFT: 16.53W  GRAD.:     0.241 HEAT:-11.12317
 CYCLE:   292 TIME:   0.038 TIME LEFT: 16.53W  GRAD.:     0.278 HEAT:-11.12127
 CYCLE:   293 TIME:   0.036 TIME LEFT: 16.53W  GRAD.:     0.240 HEAT:-11.12346
 CYCLE:   294 TIME:   0.036 TIME LEFT: 16.53W  GRAD.:     0.240 HEAT:-11.12314
 CYCLE:   295 TIME:   0.039 TIME LEFT: 16.53W  GRAD.:     0.525 HEAT:-11.12147
 CYCLE:   296 TIME:   0.038 TIME LEFT: 16.53W  GRAD.:     0.241 HEAT:-11.12311
 CYCLE:   297 TIME:   0.036 TIME LEFT: 16.53W  GRAD.:     0.241 HEAT:-11.12313
 CYCLE:   298 TIME:   0.036 TIME LEFT: 16.53W  GRAD.:     0.247 HEAT:-11.12354
 CYCLE:   299 TIME:   0.037 TIME LEFT: 16.53W  GRAD.:     0.240 HEAT:-11.12334
 CYCLE:   300 TIME:   0.037 TIME LEFT: 16.53W  GRAD.:     0.262 HEAT:-11.12132
 CYCLE:   301 TIME:   0.036 TIME LEFT: 16.53W  GRAD.:     0.240 HEAT:-11.12345
 CYCLE:   302 TIME:   0.036 TIME LEFT: 16.53W  GRAD.:     0.240 HEAT:-11.12312
 CYCLE:   303 TIME:   0.036 TIME LEFT: 16.53W  GRAD.:     0.240 HEAT:-11.12341
 CYCLE:   304 TIME:   0.038 TIME LEFT: 16.53W  GRAD.:     0.245 HEAT:-11.12212
 CYCLE:   305 TIME:   0.043 TIME LEFT: 16.53W  GRAD.:     0.246 HEAT:-11.12300
 CYCLE:   306 TIME:   0.037 TIME LEFT: 16.53W  GRAD.:     0.242 HEAT:-11.12352
 CYCLE:   307 TIME:   0.036 TIME LEFT: 16.53W  GRAD.:     0.240 HEAT:-11.12350
 CYCLE:   308 TIME:   0.037 TIME LEFT: 16.53W  GRAD.:     0.257 HEAT:-11.12212
 CYCLE:   309 TIME:   0.038 TIME LEFT: 16.53W  GRAD.:     0.291 HEAT:-11.12236
 CYCLE:   310 TIME:   0.037 TIME LEFT: 16.53W  GRAD.:     0.240 HEAT:-11.12349
 CYCLE:   311 TIME:   0.037 TIME LEFT: 16.53W  GRAD.:     0.257 HEAT:-11.12200
 CYCLE:   312 TIME:   0.037 TIME LEFT: 16.53W  GRAD.:     0.242 HEAT:-11.12349
 CYCLE:   313 TIME:   0.036 TIME LEFT: 16.53W  GRAD.:     0.243 HEAT:-11.12355
 CYCLE:   314 TIME:   0.036 TIME LEFT: 16.53W  GRAD.:     0.240 HEAT:-11.12351
 CYCLE:   315 TIME:   0.038 TIME LEFT: 16.53W  GRAD.:     0.251 HEAT:-11.12219
 CYCLE:   316 TIME:   0.037 TIME LEFT: 16.53W  GRAD.:     0.262 HEAT:-11.12223
 CYCLE:   317 TIME:   0.037 TIME LEFT: 16.53W  GRAD.:     0.240 HEAT:-11.12349
 CYCLE:   318 TIME:   0.039 TIME LEFT: 16.53W  GRAD.:     0.494 HEAT:-11.12124
 CYCLE:   319 TIME:   0.038 TIME LEFT: 16.53W  GRAD.:     0.240 HEAT:-11.12319
 CYCLE:   320 TIME:   0.036 TIME LEFT: 16.53W  GRAD.:     0.240 HEAT:-11.12320
 CYCLE:   321 TIME:   0.036 TIME LEFT: 16.53W  GRAD.:     0.240 HEAT:-11.12345
 CYCLE:   322 TIME:   0.036 TIME LEFT: 16.53W  GRAD.:     0.240 HEAT:-11.12341
 CYCLE:   323 TIME:   0.037 TIME LEFT: 16.53W  GRAD.:     0.242 HEAT:-11.12350
 CYCLE:   324 TIME:   0.036 TIME LEFT: 16.53W  GRAD.:     0.252 HEAT:-11.12238
 CYCLE:   325 TIME:   0.038 TIME LEFT: 16.53W  GRAD.:     0.625 HEAT:-11.12519
 CYCLE:   326 TIME:   0.039 TIME LEFT: 16.53W  GRAD.:     0.240 HEAT:-11.12345
 CYCLE:   327 TIME:   0.036 TIME LEFT: 16.53W  GRAD.:     0.240 HEAT:-11.12346
 CYCLE:   328 TIME:   0.036 TIME LEFT: 16.53W  GRAD.:     0.240 HEAT:-11.12344
 CYCLE:   329 TIME:   0.036 TIME LEFT: 16.53W  GRAD.:     0.240 HEAT:-11.12346
 CYCLE:   330 TIME:   0.036 TIME LEFT: 16.53W  GRAD.:     0.240 HEAT:-11.12342
 CYCLE:   331 TIME:   0.036 TIME LEFT: 16.53W  GRAD.:     0.247 HEAT:-11.12355
 CYCLE:   332 TIME:   0.037 TIME LEFT: 16.53W  GRAD.:     0.398 HEAT:-11.12259
 CYCLE:   333 TIME:   0.040 TIME LEFT: 16.53W  GRAD.:     0.240 HEAT:-11.12344
 CYCLE:   334 TIME:   0.036 TIME LEFT: 16.53W  GRAD.:     0.240 HEAT:-11.12344
 CYCLE:   335 TIME:   0.036 TIME LEFT: 16.53W  GRAD.:     0.240 HEAT:-11.12344
 CYCLE:   336 TIME:   0.037 TIME LEFT: 16.53W  GRAD.:     0.240 HEAT:-11.12345
 CYCLE:   337 TIME:   0.036 TIME LEFT: 16.53W  GRAD.:     0.240 HEAT:-11.12343
 CYCLE:   338 TIME:   0.036 TIME LEFT: 16.53W  GRAD.:     0.242 HEAT:-11.12350
 CYCLE:   339 TIME:   0.037 TIME LEFT: 16.53W  GRAD.:     0.265 HEAT:-11.12195
 CYCLE:   340 TIME:   0.038 TIME LEFT: 16.53W  GRAD.:     0.240 HEAT:-11.12315
 CYCLE:   341 TIME:   0.036 TIME LEFT: 16.53W  GRAD.:     0.242 HEAT:-11.12352
 CYCLE:   342 TIME:   0.036 TIME LEFT: 16.53W  GRAD.:     0.241 HEAT:-11.12349
 CYCLE:   343 TIME:   0.037 TIME LEFT: 16.53W  GRAD.:     0.286 HEAT:-11.12186
 CYCLE:   344 TIME:   0.037 TIME LEFT: 16.53W  GRAD.:     0.239 HEAT:-11.12340
 CYCLE:   345 TIME:   0.036 TIME LEFT: 16.53W  GRAD.:     0.240 HEAT:-11.12347
 CYCLE:   346 TIME:   0.036 TIME LEFT: 16.53W  GRAD.:     0.240 HEAT:-11.12341
 CYCLE:   347 TIME:   0.036 TIME LEFT: 16.53W  GRAD.:     0.240 HEAT:-11.12348
 CYCLE:   348 TIME:   0.036 TIME LEFT: 16.53W  GRAD.:     0.240 HEAT:-11.12341
 CYCLE:   349 TIME:   0.037 TIME LEFT: 16.53W  GRAD.:     0.246 HEAT:-11.12219
 CYCLE:   350 TIME:   0.039 TIME LEFT: 16.53W  GRAD.:     0.341 HEAT:-11.12144
 CYCLE:   351 TIME:   0.037 TIME LEFT: 16.53W  GRAD.:     0.242 HEAT:-11.12350
 CYCLE:   352 TIME:   0.036 TIME LEFT: 16.53W  GRAD.:     0.240 HEAT:-11.12350
 CYCLE:   353 TIME:   0.036 TIME LEFT: 16.53W  GRAD.:     0.240 HEAT:-11.12346
 CYCLE:   354 TIME:   0.036 TIME LEFT: 16.53W  GRAD.:     0.241 HEAT:-11.12348
 CYCLE:   355 TIME:   0.036 TIME LEFT: 16.53W  GRAD.:     0.241 HEAT:-11.12318
 CYCLE:   356 TIME:   0.038 TIME LEFT: 16.53W  GRAD.:     0.263 HEAT:-11.12225
 CYCLE:   357 TIME:   0.036 TIME LEFT: 16.53W  GRAD.:     0.243 HEAT:-11.12352
 CYCLE:   358 TIME:   0.038 TIME LEFT: 16.53W  GRAD.:     0.798 HEAT:-11.12541
 CYCLE:   359 TIME:   0.039 TIME LEFT: 16.53W  GRAD.:     0.240 HEAT:-11.12317
 CYCLE:   360 TIME:   0.036 TIME LEFT: 16.53W  GRAD.:     0.240 HEAT:-11.12320
 CYCLE:   361 TIME:   0.036 TIME LEFT: 16.53W  GRAD.:     0.240 HEAT:-11.12345
 CYCLE:   362 TIME:   0.036 TIME LEFT: 16.53W  GRAD.:     0.240 HEAT:-11.12318
 CYCLE:   363 TIME:   0.036 TIME LEFT: 16.53W  GRAD.:     0.241 HEAT:-11.12352
 CYCLE:   364 TIME:   0.036 TIME LEFT: 16.53W  GRAD.:     0.248 HEAT:-11.12215
 CYCLE:   365 TIME:   0.039 TIME LEFT: 16.53W  GRAD.:     0.476 HEAT:-11.12347
 CYCLE:   366 TIME:   0.038 TIME LEFT: 16.53W  GRAD.:     0.240 HEAT:-11.12344
 CYCLE:   367 TIME:   0.036 TIME LEFT: 16.53W  GRAD.:     0.240 HEAT:-11.12345
 CYCLE:   368 TIME:   0.036 TIME LEFT: 16.53W  GRAD.:     0.240 HEAT:-11.12343
 CYCLE:   369 TIME:   0.036 TIME LEFT: 16.53W  GRAD.:     0.240 HEAT:-11.12346
 CYCLE:   370 TIME:   0.036 TIME LEFT: 16.53W  GRAD.:     0.240 HEAT:-11.12342
 CYCLE:   371 TIME:   0.036 TIME LEFT: 16.53W  GRAD.:     0.244 HEAT:-11.12355
 CYCLE:   372 TIME:   0.038 TIME LEFT: 16.53W  GRAD.:     0.330 HEAT:-11.12188
 CYCLE:   373 TIME:   0.037 TIME LEFT: 16.53W  GRAD.:     0.240 HEAT:-11.12346
 CYCLE:   374 TIME:   0.036 TIME LEFT: 16.53W  GRAD.:     0.240 HEAT:-11.12347
 CYCLE:   375 TIME:   0.036 TIME LEFT: 16.53W  GRAD.:     0.240 HEAT:-11.12346
 CYCLE:   376 TIME:   0.036 TIME LEFT: 16.53W  GRAD.:     0.240 HEAT:-11.12346
 CYCLE:   377 TIME:   0.036 TIME LEFT: 16.53W  GRAD.:     0.241 HEAT:-11.12346
 CYCLE:   378 TIME:   0.036 TIME LEFT: 16.53W  GRAD.:     0.244 HEAT:-11.12251
 CYCLE:   379 TIME:   0.037 TIME LEFT: 16.53W  GRAD.:     0.367 HEAT:-11.12329
 CYCLE:   380 TIME:   0.038 TIME LEFT: 16.53W  GRAD.:     0.240 HEAT:-11.12344
 CYCLE:   381 TIME:   0.036 TIME LEFT: 16.53W  GRAD.:     0.240 HEAT:-11.12251
 CYCLE:   382 TIME:   0.036 TIME LEFT: 16.53W  GRAD.:     0.240 HEAT:-11.12344
 CYCLE:   383 TIME:   0.036 TIME LEFT: 16.53W  GRAD.:     0.240 HEAT:-11.12344
 CYCLE:   384 TIME:   0.036 TIME LEFT: 16.53W  GRAD.:     0.240 HEAT:-11.12345
 CYCLE:   385 TIME:   0.036 TIME LEFT: 16.53W  GRAD.:     0.241 HEAT:-11.12344
 CYCLE:   386 TIME:   0.037 TIME LEFT: 16.53W  GRAD.:     0.330 HEAT:-11.12344
 CYCLE:   387 TIME:   0.038 TIME LEFT: 16.53W  GRAD.:     0.240 HEAT:-11.12345
 CYCLE:   388 TIME:   0.036 TIME LEFT: 16.53W  GRAD.:     0.240 HEAT:-11.12344
 CYCLE:   389 TIME:   0.036 TIME LEFT: 16.53W  GRAD.:     0.240 HEAT:-11.12345
 CYCLE:   390 TIME:   0.036 TIME LEFT: 16.53W  GRAD.:     0.240 HEAT:-11.12345
 CYCLE:   391 TIME:   0.037 TIME LEFT: 16.53W  GRAD.:     0.240 HEAT:-11.12345
 CYCLE:   392 TIME:   0.036 TIME LEFT: 16.53W  GRAD.:     0.241 HEAT:-11.12253
 CYCLE:   393 TIME:   0.037 TIME LEFT: 16.53W  GRAD.:     0.312 HEAT:-11.12343
 CYCLE:   394 TIME:   0.038 TIME LEFT: 16.53W  GRAD.:     0.240 HEAT:-11.12345
 CYCLE:   395 TIME:   0.035 TIME LEFT: 16.53W  GRAD.:     0.240 HEAT:-11.12345
 CYCLE:   396 TIME:   0.036 TIME LEFT: 16.53W  GRAD.:     0.240 HEAT:-11.12345
 CYCLE:   397 TIME:   0.036 TIME LEFT: 16.53W  GRAD.:     0.240 HEAT:-11.12345
 CYCLE:   398 TIME:   0.036 TIME LEFT: 16.53W  GRAD.:     0.240 HEAT:-11.12345
 CYCLE:   399 TIME:   0.037 TIME LEFT: 16.53W  GRAD.:     0.246 HEAT:-11.12254
 CYCLE:   400 TIME:   0.037 TIME LEFT: 16.53W  GRAD.:     0.416 HEAT:-11.12312
 CYCLE:   401 TIME:   0.037 TIME LEFT: 16.53W  GRAD.:     0.240 HEAT:-11.12345
 CYCLE:   402 TIME:   0.038 TIME LEFT: 16.53W  GRAD.:     0.240 HEAT:-11.12344
 CYCLE:   403 TIME:   0.036 TIME LEFT: 16.53W  GRAD.:     0.240 HEAT:-11.12345
 CYCLE:   404 TIME:   0.036 TIME LEFT: 16.53W  GRAD.:     0.240 HEAT:-11.12345
 CYCLE:   405 TIME:   0.036 TIME LEFT: 16.53W  GRAD.:     0.241 HEAT:-11.12344
 CYCLE:   406 TIME:   0.036 TIME LEFT: 16.53W  GRAD.:     0.246 HEAT:-11.12256
 CYCLE:   407 TIME:   0.038 TIME LEFT: 16.53W  GRAD.:     0.406 HEAT:-11.12300
 CYCLE:   408 TIME:   0.037 TIME LEFT: 16.53W  GRAD.:     0.240 HEAT:-11.12345
 CYCLE:   409 TIME:   0.036 TIME LEFT: 16.53W  GRAD.:     0.240 HEAT:-11.12346
 CYCLE:   410 TIME:   0.036 TIME LEFT: 16.53W  GRAD.:     0.240 HEAT:-11.12345
 CYCLE:   411 TIME:   0.036 TIME LEFT: 16.53W  GRAD.:     0.240 HEAT:-11.12345
 CYCLE:   412 TIME:   0.036 TIME LEFT: 16.53W  GRAD.:     0.241 HEAT:-11.12345
 CYCLE:   413 TIME:   0.036 TIME LEFT: 16.53W  GRAD.:     0.251 HEAT:-11.12253
 CYCLE:   414 TIME:   0.037 TIME LEFT: 16.53W  GRAD.:     0.533 HEAT:-11.12392
 CYCLE:   415 TIME:   0.038 TIME LEFT: 16.53W  GRAD.:     0.240 HEAT:-11.12344
 CYCLE:   416 TIME:   0.036 TIME LEFT: 16.53W  GRAD.:     0.240 HEAT:-11.12344
 CYCLE:   417 TIME:   0.036 TIME LEFT: 16.53W  GRAD.:     0.240 HEAT:-11.12345
 CYCLE:   418 TIME:   0.036 TIME LEFT: 16.53W  GRAD.:     0.240 HEAT:-11.12344
 CYCLE:   419 TIME:   0.036 TIME LEFT: 16.53W  GRAD.:     0.240 HEAT:-11.12345
 CYCLE:   420 TIME:   0.036 TIME LEFT: 16.53W  GRAD.:     0.243 HEAT:-11.12252
 CYCLE:   421 TIME:   0.037 TIME LEFT: 16.53W  GRAD.:     0.389 HEAT:-11.12410
 CYCLE:   422 TIME:   0.037 TIME LEFT: 16.53W  GRAD.:     0.240 HEAT:-11.12344
 CYCLE:   423 TIME:   0.036 TIME LEFT: 16.53W  GRAD.:     0.240 HEAT:-11.12345
 CYCLE:   424 TIME:   0.036 TIME LEFT: 16.53W  GRAD.:     0.240 HEAT:-11.12344
 CYCLE:   425 TIME:   0.036 TIME LEFT: 16.53W  GRAD.:     0.240 HEAT:-11.12345
 CYCLE:   426 TIME:   0.036 TIME LEFT: 16.53W  GRAD.:     0.240 HEAT:-11.12344
 CYCLE:   427 TIME:   0.037 TIME LEFT: 16.53W  GRAD.:     0.241 HEAT:-11.12347
 CYCLE:   428 TIME:   0.037 TIME LEFT: 16.53W  GRAD.:     0.279 HEAT:-11.12234
 CYCLE:   429 TIME:   0.037 TIME LEFT: 16.53W  GRAD.:     0.240 HEAT:-11.12251
 CYCLE:   430 TIME:   0.036 TIME LEFT: 16.53W  GRAD.:     0.240 HEAT:-11.12346
 CYCLE:   431 TIME:   0.036 TIME LEFT: 16.53W  GRAD.:     0.240 HEAT:-11.12252
 CYCLE:   432 TIME:   0.036 TIME LEFT: 16.53W  GRAD.:     0.240 HEAT:-11.12346
 CYCLE:   433 TIME:   0.036 TIME LEFT: 16.53W  GRAD.:     0.241 HEAT:-11.12250
 CYCLE:   434 TIME:   0.036 TIME LEFT: 16.53W  GRAD.:     0.243 HEAT:-11.12351
 CYCLE:   435 TIME:   0.039 TIME LEFT: 16.53W  GRAD.:     0.367 HEAT:-11.12175
 CYCLE:   436 TIME:   0.038 TIME LEFT: 16.53W  GRAD.:     0.240 HEAT:-11.12345
 CYCLE:   437 TIME:   0.036 TIME LEFT: 16.53W  GRAD.:     0.240 HEAT:-11.12345
 CYCLE:   438 TIME:   0.036 TIME LEFT: 16.53W  GRAD.:     0.240 HEAT:-11.12345
 CYCLE:   439 TIME:   0.036 TIME LEFT: 16.53W  GRAD.:     0.240 HEAT:-11.12345
 CYCLE:   440 TIME:   0.036 TIME LEFT: 16.53W  GRAD.:     0.240 HEAT:-11.12346
 CYCLE:   441 TIME:   0.041 TIME LEFT: 16.53W  GRAD.:     0.242 HEAT:-11.12320
 CYCLE:   442 TIME:   0.043 TIME LEFT: 16.53W  GRAD.:     0.271 HEAT:-11.12221
 CYCLE:   443 TIME:   0.044 TIME LEFT: 16.53W  GRAD.:     0.240 HEAT:-11.12350
 CYCLE:   444 TIME:   0.036 TIME LEFT: 16.53W  GRAD.:     0.243 HEAT:-11.12319
 CYCLE:   445 TIME:   0.037 TIME LEFT: 16.53W  GRAD.:     0.239 HEAT:-11.12344
 CYCLE:   446 TIME:   0.036 TIME LEFT: 16.53W  GRAD.:     0.240 HEAT:-11.12319
 CYCLE:   447 TIME:   0.036 TIME LEFT: 16.53W  GRAD.:     0.240 HEAT:-11.12348
 CYCLE:   448 TIME:   0.036 TIME LEFT: 16.53W  GRAD.:     0.244 HEAT:-11.12222
 CYCLE:   449 TIME:   0.039 TIME LEFT: 16.53W  GRAD.:     0.336 HEAT:-11.12460
 CYCLE:   450 TIME:   0.038 TIME LEFT: 16.53W  GRAD.:     0.240 HEAT:-11.12345
 CYCLE:   451 TIME:   0.036 TIME LEFT: 16.53W  GRAD.:     0.240 HEAT:-11.12345
 CYCLE:   452 TIME:   0.036 TIME LEFT: 16.53W  GRAD.:     0.240 HEAT:-11.12344
 CYCLE:   453 TIME:   0.036 TIME LEFT: 16.53W  GRAD.:     0.239 HEAT:-11.12346
 CYCLE:   454 TIME:   0.036 TIME LEFT: 16.53W  GRAD.:     0.244 HEAT:-11.12341
 CYCLE:   455 TIME:   0.036 TIME LEFT: 16.53W  GRAD.:     0.252 HEAT:-11.12264
 CYCLE:   456 TIME:   0.037 TIME LEFT: 16.53W  GRAD.:     0.240 HEAT:-11.12346
 CYCLE:   457 TIME:   0.035 TIME LEFT: 16.53W  GRAD.:     0.240 HEAT:-11.12344
 CYCLE:   458 TIME:   0.036 TIME LEFT: 16.53W  GRAD.:     0.240 HEAT:-11.12346
 CYCLE:   459 TIME:   0.036 TIME LEFT: 16.53W  GRAD.:     0.241 HEAT:-11.12342
 CYCLE:   460 TIME:   0.036 TIME LEFT: 16.53W  GRAD.:     0.245 HEAT:-11.12347
 CYCLE:   461 TIME:   0.038 TIME LEFT: 16.53W  GRAD.:     0.383 HEAT:-11.12287
 CYCLE:   462 TIME:   0.036 TIME LEFT: 16.53W  GRAD.:     0.239 HEAT:-11.12342
 CYCLE:   463 TIME:   0.036 TIME LEFT: 16.53W  GRAD.:     0.240 HEAT:-11.12344
 CYCLE:   464 TIME:   0.036 TIME LEFT: 16.53W  GRAD.:     0.242 HEAT:-11.12348
 CYCLE:   465 TIME:   0.036 TIME LEFT: 16.53W  GRAD.:     0.240 HEAT:-11.12338
 CYCLE:   466 TIME:   0.036 TIME LEFT: 16.53W  GRAD.:     0.247 HEAT:-11.12360
 CYCLE:   467 TIME:   0.037 TIME LEFT: 16.53W  GRAD.:     0.254 HEAT:-11.12201
 CYCLE:   468 TIME:   0.038 TIME LEFT: 16.53W  GRAD.:     0.240 HEAT:-11.12345
 CYCLE:   469 TIME:   0.036 TIME LEFT: 16.53W  GRAD.:     0.242 HEAT:-11.12352
 CYCLE:   470 TIME:   0.036 TIME LEFT: 16.53W  GRAD.:     0.239 HEAT:-11.12316
 CYCLE:   471 TIME:   0.036 TIME LEFT: 16.53W  GRAD.:     0.243 HEAT:-11.12352
 CYCLE:   472 TIME:   0.037 TIME LEFT: 16.53W  GRAD.:     0.251 HEAT:-11.12206
 CYCLE:   473 TIME:   0.036 TIME LEFT: 16.53W  GRAD.:     0.240 HEAT:-11.12345
 CYCLE:   474 TIME:   0.036 TIME LEFT: 16.53W  GRAD.:     0.240 HEAT:-11.12345
 CYCLE:   475 TIME:   0.036 TIME LEFT: 16.53W  GRAD.:     0.240 HEAT:-11.12345
 CYCLE:   476 TIME:   0.036 TIME LEFT: 16.53W  GRAD.:     0.240 HEAT:-11.12345
 CYCLE:   477 TIME:   0.037 TIME LEFT: 16.53W  GRAD.:     0.241 HEAT:-11.12347
 CYCLE:   478 TIME:   0.038 TIME LEFT: 16.53W  GRAD.:     0.245 HEAT:-11.12066
 CYCLE:   479 TIME:   0.045 TIME LEFT: 16.53W  GRAD.:     0.753 HEAT:-11.11309
 CYCLE:   480 TIME:   0.050 TIME LEFT: 16.53W  GRAD.:     0.240 HEAT:-11.12352
 CYCLE:   481 TIME:   0.043 TIME LEFT: 16.53W  GRAD.:     0.240 HEAT:-11.12203
 CYCLE:   482 TIME:   0.042 TIME LEFT: 16.53W  GRAD.:     0.241 HEAT:-11.12357
 CYCLE:   483 TIME:   0.037 TIME LEFT: 16.53W  GRAD.:     0.244 HEAT:-11.12341
 CYCLE:   484 TIME:   0.038 TIME LEFT: 16.53W  GRAD.:     0.252 HEAT:-11.12227
 CYCLE:   485 TIME:   0.036 TIME LEFT: 16.53W  GRAD.:     0.241 HEAT:-11.12326
 CYCLE:   486 TIME:   0.037 TIME LEFT: 16.53W  GRAD.:     0.243 HEAT:-11.13047
 CYCLE:   487 TIME:   0.038 TIME LEFT: 16.53W  GRAD.:     0.241 HEAT:-11.12316
 CYCLE:   488 TIME:   0.039 TIME LEFT: 16.53W  GRAD.:     0.250 HEAT:-11.13056
 CYCLE:   489 TIME:   0.039 TIME LEFT: 16.53W  GRAD.:     0.362 HEAT:-11.11771
 CYCLE:   490 TIME:   0.039 TIME LEFT: 16.53W  GRAD.:     0.240 HEAT:-11.12344
 CYCLE:   491 TIME:   0.037 TIME LEFT: 16.53W  GRAD.:     0.241 HEAT:-11.12348
 CYCLE:   492 TIME:   0.036 TIME LEFT: 16.53W  GRAD.:     0.242 HEAT:-11.12344
 CYCLE:   493 TIME:   0.036 TIME LEFT: 16.53W  GRAD.:     0.240 HEAT:-11.12348
 CYCLE:   494 TIME:   0.036 TIME LEFT: 16.53W  GRAD.:     0.242 HEAT:-11.12249
 CYCLE:   495 TIME:   0.037 TIME LEFT: 16.53W  GRAD.:     0.250 HEAT:-11.12365
 CYCLE:   496 TIME:   0.039 TIME LEFT: 16.53W  GRAD.:     0.505 HEAT:-11.12809
 CYCLE:   497 TIME:   0.038 TIME LEFT: 16.53W  GRAD.:     0.240 HEAT:-11.12348
 CYCLE:   498 TIME:   0.036 TIME LEFT: 16.53W  GRAD.:     0.240 HEAT:-11.12349
 CYCLE:   499 TIME:   0.037 TIME LEFT: 16.53W  GRAD.:     0.240 HEAT:-11.12347
 CYCLE:   500 TIME:   0.036 TIME LEFT: 16.53W  GRAD.:     0.240 HEAT:-11.12348
 CYCLE:   501 TIME:   0.036 TIME LEFT: 16.53W  GRAD.:     0.242 HEAT:-11.12346
 CYCLE:   502 TIME:   0.036 TIME LEFT: 16.53W  GRAD.:     0.258 HEAT:-11.12348
 CYCLE:   503 TIME:   0.036 TIME LEFT: 16.53W  GRAD.:     0.240 HEAT:-11.12347
 CYCLE:   504 TIME:   0.036 TIME LEFT: 16.53W  GRAD.:     0.240 HEAT:-11.12348
 CYCLE:   505 TIME:   0.036 TIME LEFT: 16.53W  GRAD.:     0.240 HEAT:-11.12346
 CYCLE:   506 TIME:   0.036 TIME LEFT: 16.53W  GRAD.:     0.240 HEAT:-11.12348
 CYCLE:   507 TIME:   0.036 TIME LEFT: 16.53W  GRAD.:     0.243 HEAT:-11.12341
 CYCLE:   508 TIME:   0.038 TIME LEFT: 16.53W  GRAD.:     0.277 HEAT:-11.12227
 CYCLE:   509 TIME:   0.037 TIME LEFT: 16.53W  GRAD.:     0.240 HEAT:-11.12351
 CYCLE:   510 TIME:   0.036 TIME LEFT: 16.53W  GRAD.:     0.242 HEAT:-11.12339
 CYCLE:   511 TIME:   0.036 TIME LEFT: 16.53W  GRAD.:     0.240 HEAT:-11.12343
 CYCLE:   512 TIME:   0.036 TIME LEFT: 16.53W  GRAD.:     0.241 HEAT:-11.12339
 CYCLE:   513 TIME:   0.036 TIME LEFT: 16.53W  GRAD.:     0.240 HEAT:-11.12350
 CYCLE:   514 TIME:   0.037 TIME LEFT: 16.53W  GRAD.:     0.249 HEAT:-11.12223
 CYCLE:   515 TIME:   0.038 TIME LEFT: 16.53W  GRAD.:     0.409 HEAT:-11.12299
 CYCLE:   516 TIME:   0.039 TIME LEFT: 16.53W  GRAD.:     0.242 HEAT:-11.12347
 CYCLE:   517 TIME:   0.036 TIME LEFT: 16.53W  GRAD.:     0.240 HEAT:-11.12348
 CYCLE:   518 TIME:   0.036 TIME LEFT: 16.53W  GRAD.:     0.240 HEAT:-11.12345
 CYCLE:   519 TIME:   0.036 TIME LEFT: 16.53W  GRAD.:     0.240 HEAT:-11.12348
 CYCLE:   520 TIME:   0.036 TIME LEFT: 16.53W  GRAD.:     0.241 HEAT:-11.12342
 CYCLE:   521 TIME:   0.036 TIME LEFT: 16.53W  GRAD.:     0.251 HEAT:-11.12365
 CYCLE:   522 TIME:   0.039 TIME LEFT: 16.53W  GRAD.:     0.519 HEAT:-11.12158
 CYCLE:   523 TIME:   0.037 TIME LEFT: 16.53W  GRAD.:     0.240 HEAT:-11.12350
 CYCLE:   524 TIME:   0.036 TIME LEFT: 16.53W  GRAD.:     0.241 HEAT:-11.12361
 CYCLE:   525 TIME:   0.036 TIME LEFT: 16.53W  GRAD.:     0.240 HEAT:-11.12353
 CYCLE:   526 TIME:   0.036 TIME LEFT: 16.53W  GRAD.:     0.240 HEAT:-11.12354
 CYCLE:   527 TIME:   0.037 TIME LEFT: 16.53W  GRAD.:     0.240 HEAT:-11.12348
 CYCLE:   528 TIME:   0.036 TIME LEFT: 16.53W  GRAD.:     0.244 HEAT:-11.12358
 CYCLE:   529 TIME:   0.037 TIME LEFT: 16.53W  GRAD.:     0.347 HEAT:-11.12299
 CYCLE:   530 TIME:   0.037 TIME LEFT: 16.53W  GRAD.:     0.240 HEAT:-11.12346
 CYCLE:   531 TIME:   0.037 TIME LEFT: 16.53W  GRAD.:     0.240 HEAT:-11.12348
 CYCLE:   532 TIME:   0.036 TIME LEFT: 16.53W  GRAD.:     0.240 HEAT:-11.12345
 CYCLE:   533 TIME:   0.036 TIME LEFT: 16.53W  GRAD.:     0.240 HEAT:-11.12348
 CYCLE:   534 TIME:   0.036 TIME LEFT: 16.53W  GRAD.:     0.240 HEAT:-11.12343
 CYCLE:   535 TIME:   0.036 TIME LEFT: 16.53W  GRAD.:     0.241 HEAT:-11.12357
 CYCLE:   536 TIME:   0.037 TIME LEFT: 16.53W  GRAD.:     0.301 HEAT:-11.12179
 CYCLE:   537 TIME:   0.038 TIME LEFT: 16.53W  GRAD.:     0.240 HEAT:-11.12348
 CYCLE:   538 TIME:   0.035 TIME LEFT: 16.53W  GRAD.:     0.240 HEAT:-11.12347
 CYCLE:   539 TIME:   0.036 TIME LEFT: 16.53W  GRAD.:     0.240 HEAT:-11.12344
 CYCLE:   540 TIME:   0.036 TIME LEFT: 16.53W  GRAD.:     0.240 HEAT:-11.12348
 CYCLE:   541 TIME:   0.037 TIME LEFT: 16.53W  GRAD.:     0.240 HEAT:-11.12338
 CYCLE:   542 TIME:   0.037 TIME LEFT: 16.53W  GRAD.:     0.244 HEAT:-11.12225
 CYCLE:   543 TIME:   0.038 TIME LEFT: 16.53W  GRAD.:     0.366 HEAT:-11.12100
 CYCLE:   544 TIME:   0.039 TIME LEFT: 16.53W  GRAD.:     0.241 HEAT:-11.12351
 CYCLE:   545 TIME:   0.036 TIME LEFT: 16.53W  GRAD.:     0.240 HEAT:-11.12342
 CYCLE:   546 TIME:   0.036 TIME LEFT: 16.53W  GRAD.:     0.240 HEAT:-11.12348
 CYCLE:   547 TIME:   0.036 TIME LEFT: 16.53W  GRAD.:     0.240 HEAT:-11.12342
 CYCLE:   548 TIME:   0.036 TIME LEFT: 16.53W  GRAD.:     0.241 HEAT:-11.12351
 CYCLE:   549 TIME:   0.037 TIME LEFT: 16.53W  GRAD.:     0.241 HEAT:-11.12208
 CYCLE:   550 TIME:   0.039 TIME LEFT: 16.53W  GRAD.:     0.355 HEAT:-11.12547
 CYCLE:   551 TIME:   0.039 TIME LEFT: 16.53W  GRAD.:     0.240 HEAT:-11.12345
 CYCLE:   552 TIME:   0.036 TIME LEFT: 16.53W  GRAD.:     0.240 HEAT:-11.12344
 CYCLE:   553 TIME:   0.035 TIME LEFT: 16.53W  GRAD.:     0.240 HEAT:-11.12345
 CYCLE:   554 TIME:   0.037 TIME LEFT: 16.53W  GRAD.:     0.240 HEAT:-11.12343
 CYCLE:   555 TIME:   0.036 TIME LEFT: 16.53W  GRAD.:     0.240 HEAT:-11.12347
 CYCLE:   556 TIME:   0.037 TIME LEFT: 16.53W  GRAD.:     0.242 HEAT:-11.12245
 CYCLE:   557 TIME:   0.037 TIME LEFT: 16.53W  GRAD.:     0.258 HEAT:-11.12308
 CYCLE:   558 TIME:   0.037 TIME LEFT: 16.53W  GRAD.:     0.241 HEAT:-11.12354
 CYCLE:   559 TIME:   0.038 TIME LEFT: 16.53W  GRAD.:     0.252 HEAT:-11.12193
 CYCLE:   560 TIME:   0.037 TIME LEFT: 16.53W  GRAD.:     0.246 HEAT:-11.12233
 CYCLE:   561 TIME:   0.037 TIME LEFT: 16.53W  GRAD.:     0.240 HEAT:-11.12350
 CYCLE:   562 TIME:   0.038 TIME LEFT: 16.53W  GRAD.:     0.247 HEAT:-11.12202
 CYCLE:   563 TIME:   0.037 TIME LEFT: 16.53W  GRAD.:     0.243 HEAT:-11.12229
 CYCLE:   564 TIME:   0.037 TIME LEFT: 16.53W  GRAD.:     0.261 HEAT:-11.12184
 CYCLE:   565 TIME:   0.038 TIME LEFT: 16.53W  GRAD.:     0.240 HEAT:-11.12347
 CYCLE:   566 TIME:   0.036 TIME LEFT: 16.53W  GRAD.:     0.240 HEAT:-11.12350
 CYCLE:   567 TIME:   0.036 TIME LEFT: 16.53W  GRAD.:     0.241 HEAT:-11.12318
 CYCLE:   568 TIME:   0.036 TIME LEFT: 16.53W  GRAD.:     0.243 HEAT:-11.12367
 CYCLE:   569 TIME:   0.037 TIME LEFT: 16.53W  GRAD.:     0.323 HEAT:-11.12193
 CYCLE:   570 TIME:   0.038 TIME LEFT: 16.53W  GRAD.:     0.239 HEAT:-11.12346
 CYCLE:   571 TIME:   0.036 TIME LEFT: 16.53W  GRAD.:     0.240 HEAT:-11.12349
 CYCLE:   572 TIME:   0.036 TIME LEFT: 16.53W  GRAD.:     0.240 HEAT:-11.12345
 CYCLE:   573 TIME:   0.036 TIME LEFT: 16.53W  GRAD.:     0.240 HEAT:-11.12348
 CYCLE:   574 TIME:   0.036 TIME LEFT: 16.53W  GRAD.:     0.241 HEAT:-11.12343
 CYCLE:   575 TIME:   0.036 TIME LEFT: 16.53W  GRAD.:     0.245 HEAT:-11.12357
 CYCLE:   576 TIME:   0.046 TIME LEFT: 16.53W  GRAD.:     0.420 HEAT:-11.12262
 CYCLE:   577 TIME:   0.038 TIME LEFT: 16.53W  GRAD.:     0.240 HEAT:-11.12345
 CYCLE:   578 TIME:   0.036 TIME LEFT: 16.53W  GRAD.:     0.240 HEAT:-11.12352
 CYCLE:   579 TIME:   0.036 TIME LEFT: 16.53W  GRAD.:     0.240 HEAT:-11.12345
 CYCLE:   580 TIME:   0.036 TIME LEFT: 16.53W  GRAD.:     0.240 HEAT:-11.12350
 CYCLE:   581 TIME:   0.036 TIME LEFT: 16.53W  GRAD.:     0.241 HEAT:-11.12318
 CYCLE:   582 TIME:   0.037 TIME LEFT: 16.53W  GRAD.:     0.249 HEAT:-11.12228
 CYCLE:   583 TIME:   0.039 TIME LEFT: 16.53W  GRAD.:     0.448 HEAT:-11.12202
 CYCLE:   584 TIME:   0.039 TIME LEFT: 16.53W  GRAD.:     0.240 HEAT:-11.12350
 CYCLE:   585 TIME:   0.036 TIME LEFT: 16.53W  GRAD.:     0.240 HEAT:-11.12343
 CYCLE:   586 TIME:   0.036 TIME LEFT: 16.53W  GRAD.:     0.240 HEAT:-11.12348
 CYCLE:   587 TIME:   0.036 TIME LEFT: 16.53W  GRAD.:     0.240 HEAT:-11.12342
 CYCLE:   588 TIME:   0.036 TIME LEFT: 16.53W  GRAD.:     0.241 HEAT:-11.12352
 CYCLE:   589 TIME:   0.037 TIME LEFT: 16.53W  GRAD.:     0.247 HEAT:-11.12297
 CYCLE:   590 TIME:   0.039 TIME LEFT: 16.53W  GRAD.:     0.407 HEAT:-11.12549
 CYCLE:   591 TIME:   0.038 TIME LEFT: 16.53W  GRAD.:     0.240 HEAT:-11.12344
 CYCLE:   592 TIME:   0.036 TIME LEFT: 16.53W  GRAD.:     0.240 HEAT:-11.12345
 CYCLE:   593 TIME:   0.036 TIME LEFT: 16.53W  GRAD.:     0.240 HEAT:-11.12343
 CYCLE:   594 TIME:   0.036 TIME LEFT: 16.53W  GRAD.:     0.240 HEAT:-11.12346
 CYCLE:   595 TIME:   0.036 TIME LEFT: 16.53W  GRAD.:     0.241 HEAT:-11.12341
 CYCLE:   596 TIME:   0.036 TIME LEFT: 16.53W  GRAD.:     0.245 HEAT:-11.12357
 CYCLE:   597 TIME:   0.037 TIME LEFT: 16.53W  GRAD.:     0.408 HEAT:-11.12167
 CYCLE:   598 TIME:   0.038 TIME LEFT: 16.53W  GRAD.:     0.240 HEAT:-11.12346
 CYCLE:   599 TIME:   0.036 TIME LEFT: 16.53W  GRAD.:     0.240 HEAT:-11.12353
 CYCLE:   600 TIME:   0.037 TIME LEFT: 16.53W  GRAD.:     0.240 HEAT:-11.12345
 CYCLE:   601 TIME:   0.036 TIME LEFT: 16.53W  GRAD.:     0.240 HEAT:-11.12350
 CYCLE:   602 TIME:   0.037 TIME LEFT: 16.53W  GRAD.:     0.241 HEAT:-11.12340
 CYCLE:   603 TIME:   0.037 TIME LEFT: 16.53W  GRAD.:     0.246 HEAT:-11.12373
 CYCLE:   604 TIME:   0.038 TIME LEFT: 16.53W  GRAD.:     0.416 HEAT:-11.12102
 CYCLE:   605 TIME:   0.039 TIME LEFT: 16.53W  GRAD.:     0.239 HEAT:-11.12347
 CYCLE:   606 TIME:   0.036 TIME LEFT: 16.53W  GRAD.:     0.240 HEAT:-11.12345
 CYCLE:   607 TIME:   0.035 TIME LEFT: 16.53W  GRAD.:     0.240 HEAT:-11.12346
 CYCLE:   608 TIME:   0.037 TIME LEFT: 16.53W  GRAD.:     0.240 HEAT:-11.12345
 CYCLE:   609 TIME:   0.036 TIME LEFT: 16.53W  GRAD.:     0.240 HEAT:-11.12346
 CYCLE:   610 TIME:   0.036 TIME LEFT: 16.53W  GRAD.:     0.240 HEAT:-11.12341
 CYCLE:   611 TIME:   0.038 TIME LEFT: 16.53W  GRAD.:     0.295 HEAT:-11.12335
 CYCLE:   612 TIME:   0.037 TIME LEFT: 16.53W  GRAD.:     0.240 HEAT:-11.12345
 CYCLE:   613 TIME:   0.036 TIME LEFT: 16.53W  GRAD.:     0.240 HEAT:-11.12344
 CYCLE:   614 TIME:   0.036 TIME LEFT: 16.53W  GRAD.:     0.240 HEAT:-11.12345
 CYCLE:   615 TIME:   0.036 TIME LEFT: 16.53W  GRAD.:     0.240 HEAT:-11.12344
 CYCLE:   616 TIME:   0.036 TIME LEFT: 16.53W  GRAD.:     0.240 HEAT:-11.12346
 CYCLE:   617 TIME:   0.036 TIME LEFT: 16.53W  GRAD.:     0.240 HEAT:-11.12249
 CYCLE:   618 TIME:   0.039 TIME LEFT: 16.53W  GRAD.:     0.276 HEAT:-11.12362
 CYCLE:   619 TIME:   0.037 TIME LEFT: 16.53W  GRAD.:     0.240 HEAT:-11.12344
 CYCLE:   620 TIME:   0.036 TIME LEFT: 16.53W  GRAD.:     0.240 HEAT:-11.12343
 CYCLE:   621 TIME:   0.036 TIME LEFT: 16.53W  GRAD.:     0.240 HEAT:-11.12344
 CYCLE:   622 TIME:   0.036 TIME LEFT: 16.53W  GRAD.:     0.240 HEAT:-11.12343
 CYCLE:   623 TIME:   0.036 TIME LEFT: 16.53W  GRAD.:     0.240 HEAT:-11.12345
 CYCLE:   624 TIME:   0.036 TIME LEFT: 16.53W  GRAD.:     0.240 HEAT:-11.12248
 CYCLE:   625 TIME:   0.037 TIME LEFT: 16.53W  GRAD.:     0.284 HEAT:-11.12227
 CYCLE:   626 TIME:   0.038 TIME LEFT: 16.53W  GRAD.:     0.240 HEAT:-11.12348
 CYCLE:   627 TIME:   0.036 TIME LEFT: 16.53W  GRAD.:     0.240 HEAT:-11.12343
 CYCLE:   628 TIME:   0.036 TIME LEFT: 16.53W  GRAD.:     0.240 HEAT:-11.12347
 CYCLE:   629 TIME:   0.040 TIME LEFT: 16.53W  GRAD.:     0.240 HEAT:-11.12342
 CYCLE:   630 TIME:   0.041 TIME LEFT: 16.53W  GRAD.:     0.241 HEAT:-11.12350
 CYCLE:   631 TIME:   0.042 TIME LEFT: 16.53W  GRAD.:     0.243 HEAT:-11.12211
 CYCLE:   632 TIME:   0.046 TIME LEFT: 16.53W  GRAD.:     0.406 HEAT:-11.11320
 CYCLE:   633 TIME:   0.040 TIME LEFT: 16.53W  GRAD.:     0.240 HEAT:-11.12344
 CYCLE:   634 TIME:   0.036 TIME LEFT: 16.53W  GRAD.:     0.240 HEAT:-11.12346
 CYCLE:   635 TIME:   0.036 TIME LEFT: 16.53W  GRAD.:     0.240 HEAT:-11.12344
 CYCLE:   636 TIME:   0.036 TIME LEFT: 16.53W  GRAD.:     0.240 HEAT:-11.12346
 CYCLE:   637 TIME:   0.036 TIME LEFT: 16.53W  GRAD.:     0.240 HEAT:-11.12343
 CYCLE:   638 TIME:   0.036 TIME LEFT: 16.53W  GRAD.:     0.244 HEAT:-11.12354
 CYCLE:   639 TIME:   0.037 TIME LEFT: 16.53W  GRAD.:     0.321 HEAT:-11.12189
 CYCLE:   640 TIME:   0.037 TIME LEFT: 16.53W  GRAD.:     0.240 HEAT:-11.12347
 CYCLE:   641 TIME:   0.036 TIME LEFT: 16.53W  GRAD.:     0.240 HEAT:-11.12347
 CYCLE:   642 TIME:   0.036 TIME LEFT: 16.53W  GRAD.:     0.240 HEAT:-11.12346
 CYCLE:   643 TIME:   0.036 TIME LEFT: 16.53W  GRAD.:     0.240 HEAT:-11.12347
 CYCLE:   644 TIME:   0.036 TIME LEFT: 16.53W  GRAD.:     0.240 HEAT:-11.12345
 CYCLE:   645 TIME:   0.036 TIME LEFT: 16.53W  GRAD.:     0.244 HEAT:-11.12349
 CYCLE:   646 TIME:   0.038 TIME LEFT: 16.53W  GRAD.:     0.326 HEAT:-11.12232
 CYCLE:   647 TIME:   0.037 TIME LEFT: 16.53W  GRAD.:     0.239 HEAT:-11.12344
 CYCLE:   648 TIME:   0.036 TIME LEFT: 16.53W  GRAD.:     0.240 HEAT:-11.12344
 CYCLE:   649 TIME:   0.036 TIME LEFT: 16.53W  GRAD.:     0.240 HEAT:-11.12344
 CYCLE:   650 TIME:   0.036 TIME LEFT: 16.53W  GRAD.:     0.240 HEAT:-11.12345
 CYCLE:   651 TIME:   0.036 TIME LEFT: 16.53W  GRAD.:     0.240 HEAT:-11.12343
 CYCLE:   652 TIME:   0.036 TIME LEFT: 16.53W  GRAD.:     0.243 HEAT:-11.12348
 CYCLE:   653 TIME:   0.037 TIME LEFT: 16.53W  GRAD.:     0.278 HEAT:-11.12234
 CYCLE:   654 TIME:   0.037 TIME LEFT: 16.53W  GRAD.:     0.240 HEAT:-11.12345
 CYCLE:   655 TIME:   0.036 TIME LEFT: 16.53W  GRAD.:     0.240 HEAT:-11.12345
 CYCLE:   656 TIME:   0.036 TIME LEFT: 16.53W  GRAD.:     0.240 HEAT:-11.12345
 CYCLE:   657 TIME:   0.036 TIME LEFT: 16.53W  GRAD.:     0.240 HEAT:-11.12345
 CYCLE:   658 TIME:   0.036 TIME LEFT: 16.53W  GRAD.:     0.240 HEAT:-11.12345
 CYCLE:   659 TIME:   0.036 TIME LEFT: 16.53W  GRAD.:     0.242 HEAT:-11.12346
 CYCLE:   660 TIME:   0.037 TIME LEFT: 16.53W  GRAD.:     0.274 HEAT:-11.12333
 CYCLE:   661 TIME:   0.038 TIME LEFT: 16.53W  GRAD.:     0.240 HEAT:-11.12344
 CYCLE:   662 TIME:   0.037 TIME LEFT: 16.53W  GRAD.:     0.240 HEAT:-11.12344
 CYCLE:   663 TIME:   0.036 TIME LEFT: 16.53W  GRAD.:     0.240 HEAT:-11.12344
 CYCLE:   664 TIME:   0.036 TIME LEFT: 16.53W  GRAD.:     0.240 HEAT:-11.12345
 CYCLE:   665 TIME:   0.036 TIME LEFT: 16.53W  GRAD.:     0.240 HEAT:-11.12343
 CYCLE:   666 TIME:   0.036 TIME LEFT: 16.53W  GRAD.:     0.246 HEAT:-11.12258
 CYCLE:   667 TIME:   0.037 TIME LEFT: 16.53W  GRAD.:     0.317 HEAT:-11.12290
 CYCLE:   668 TIME:   0.038 TIME LEFT: 16.53W  GRAD.:     0.240 HEAT:-11.12345
 CYCLE:   669 TIME:   0.036 TIME LEFT: 16.53W  GRAD.:     0.240 HEAT:-11.12345
 CYCLE:   670 TIME:   0.036 TIME LEFT: 16.53W  GRAD.:     0.240 HEAT:-11.12344
 CYCLE:   671 TIME:   0.036 TIME LEFT: 16.53W  GRAD.:     0.240 HEAT:-11.12346
 CYCLE:   672 TIME:   0.036 TIME LEFT: 16.53W  GRAD.:     0.241 HEAT:-11.12343
 CYCLE:   673 TIME:   0.036 TIME LEFT: 16.53W  GRAD.:     0.254 HEAT:-11.12115
 CYCLE:   674 TIME:   0.039 TIME LEFT: 16.53W  GRAD.:     0.546 HEAT:-11.12324
 CYCLE:   675 TIME:   0.038 TIME LEFT: 16.53W  GRAD.:     0.240 HEAT:-11.12348
 CYCLE:   676 TIME:   0.036 TIME LEFT: 16.53W  GRAD.:     0.240 HEAT:-11.12347
 CYCLE:   677 TIME:   0.036 TIME LEFT: 16.53W  GRAD.:     0.240 HEAT:-11.12346
 CYCLE:   678 TIME:   0.036 TIME LEFT: 16.53W  GRAD.:     0.240 HEAT:-11.12346
 CYCLE:   679 TIME:   0.036 TIME LEFT: 16.53W  GRAD.:     0.240 HEAT:-11.12346
 CYCLE:   680 TIME:   0.036 TIME LEFT: 16.53W  GRAD.:     0.240 HEAT:-11.12345
 CYCLE:   681 TIME:   0.036 TIME LEFT: 16.53W  GRAD.:     0.259 HEAT:-11.12114
 CYCLE:   682 TIME:   0.039 TIME LEFT: 16.53W  GRAD.:     0.822 HEAT:-11.12429
 CYCLE:   683 TIME:   0.039 TIME LEFT: 16.53W  GRAD.:     0.241 HEAT:-11.12349
 CYCLE:   684 TIME:   0.036 TIME LEFT: 16.53W  GRAD.:     0.240 HEAT:-11.12346
 CYCLE:   685 TIME:   0.036 TIME LEFT: 16.53W  GRAD.:     0.240 HEAT:-11.12347
 CYCLE:   686 TIME:   0.036 TIME LEFT: 16.53W  GRAD.:     0.240 HEAT:-11.12345
 CYCLE:   687 TIME:   0.036 TIME LEFT: 16.53W  GRAD.:     0.240 HEAT:-11.12348
 CYCLE:   688 TIME:   0.036 TIME LEFT: 16.53W  GRAD.:     0.241 HEAT:-11.12338
 CYCLE:   689 TIME:   0.037 TIME LEFT: 16.53W  GRAD.:     0.275 HEAT:-11.12244
 CYCLE:   690 TIME:   0.037 TIME LEFT: 16.53W  GRAD.:     0.240 HEAT:-11.12352
 CYCLE:   691 TIME:   0.036 TIME LEFT: 16.53W  GRAD.:     0.240 HEAT:-11.12339
 CYCLE:   692 TIME:   0.038 TIME LEFT: 16.53W  GRAD.:     0.240 HEAT:-11.12346
 CYCLE:   693 TIME:   0.036 TIME LEFT: 16.53W  GRAD.:     0.240 HEAT:-11.12338
 CYCLE:   694 TIME:   0.036 TIME LEFT: 16.53W  GRAD.:     0.241 HEAT:-11.12355
 CYCLE:   695 TIME:   0.037 TIME LEFT: 16.53W  GRAD.:     0.249 HEAT:-11.12209
 CYCLE:   696 TIME:   0.039 TIME LEFT: 16.53W  GRAD.:     0.494 HEAT:-11.11455
 CYCLE:   697 TIME:   0.039 TIME LEFT: 16.53W  GRAD.:     0.240 HEAT:-11.12350
 CYCLE:   698 TIME:   0.036 TIME LEFT: 16.53W  GRAD.:     0.240 HEAT:-11.12349
 CYCLE:   699 TIME:   0.036 TIME LEFT: 16.53W  GRAD.:     0.240 HEAT:-11.12344
 CYCLE:   700 TIME:   0.036 TIME LEFT: 16.53W  GRAD.:     0.240 HEAT:-11.12351
 CYCLE:   701 TIME:   0.036 TIME LEFT: 16.53W  GRAD.:     0.243 HEAT:-11.12337
 CYCLE:   702 TIME:   0.037 TIME LEFT: 16.53W  GRAD.:     0.255 HEAT:-11.12235
 CYCLE:   703 TIME:   0.036 TIME LEFT: 16.53W  GRAD.:     0.242 HEAT:-11.12210
 CYCLE:   704 TIME:   0.037 TIME LEFT: 16.53W  GRAD.:     0.265 HEAT:-11.12193
 CYCLE:   705 TIME:   0.038 TIME LEFT: 16.53W  GRAD.:     0.241 HEAT:-11.12340
 CYCLE:   706 TIME:   0.037 TIME LEFT: 16.53W  GRAD.:     0.248 HEAT:-11.12221
 CYCLE:   707 TIME:   0.037 TIME LEFT: 16.53W  GRAD.:     0.247 HEAT:-11.12236
 CYCLE:   708 TIME:   0.036 TIME LEFT: 16.53W  GRAD.:     0.241 HEAT:-11.12343
 CYCLE:   709 TIME:   0.037 TIME LEFT: 16.53W  GRAD.:     0.244 HEAT:-11.12359
 CYCLE:   710 TIME:   0.037 TIME LEFT: 16.53W  GRAD.:     0.248 HEAT:-11.12233
 CYCLE:   711 TIME:   0.037 TIME LEFT: 16.53W  GRAD.:     0.256 HEAT:-11.12225
 CYCLE:   712 TIME:   0.038 TIME LEFT: 16.53W  GRAD.:     0.241 HEAT:-11.12341
 CYCLE:   713 TIME:   0.036 TIME LEFT: 16.53W  GRAD.:     0.242 HEAT:-11.12336
 CYCLE:   714 TIME:   0.036 TIME LEFT: 16.53W  GRAD.:     0.241 HEAT:-11.12348
 CYCLE:   715 TIME:   0.040 TIME LEFT: 16.53W  GRAD.:     0.246 HEAT:-11.12214
 CYCLE:   716 TIME:   0.046 TIME LEFT: 16.53W  GRAD.:     0.251 HEAT:-11.12228
 CYCLE:   717 TIME:   0.041 TIME LEFT: 16.53W  GRAD.:     0.240 HEAT:-11.12203
 CYCLE:   718 TIME:   0.043 TIME LEFT: 16.53W  GRAD.:     0.246 HEAT:-11.12327
 CYCLE:   719 TIME:   0.038 TIME LEFT: 16.53W  GRAD.:     0.243 HEAT:-11.12213
 CYCLE:   720 TIME:   0.037 TIME LEFT: 16.53W  GRAD.:     0.261 HEAT:-11.12294
 CYCLE:   721 TIME:   0.037 TIME LEFT: 16.53W  GRAD.:     0.239 HEAT:-11.12205
 CYCLE:   722 TIME:   0.036 TIME LEFT: 16.53W  GRAD.:     0.241 HEAT:-11.12210
 CYCLE:   723 TIME:   0.036 TIME LEFT: 16.53W  GRAD.:     0.241 HEAT:-11.12342
 CYCLE:   724 TIME:   0.039 TIME LEFT: 16.53W  GRAD.:     0.328 HEAT:-11.12163
 CYCLE:   725 TIME:   0.038 TIME LEFT: 16.53W  GRAD.:     0.243 HEAT:-11.12234
 CYCLE:   726 TIME:   0.036 TIME LEFT: 16.53W  GRAD.:     0.241 HEAT:-11.12356
 CYCLE:   727 TIME:   0.036 TIME LEFT: 16.53W  GRAD.:     0.241 HEAT:-11.12355
 CYCLE:   728 TIME:   0.037 TIME LEFT: 16.53W  GRAD.:     0.241 HEAT:-11.12344
 CYCLE:   729 TIME:   0.037 TIME LEFT: 16.53W  GRAD.:     0.256 HEAT:-11.12196
 CYCLE:   730 TIME:   0.038 TIME LEFT: 16.53W  GRAD.:     0.440 HEAT:-11.12545
 CYCLE:   731 TIME:   0.039 TIME LEFT: 16.53W  GRAD.:     0.247 HEAT:-11.12332
 CYCLE:   732 TIME:   0.036 TIME LEFT: 16.53W  GRAD.:     0.241 HEAT:-11.12344
 CYCLE:   733 TIME:   0.036 TIME LEFT: 16.53W  GRAD.:     0.241 HEAT:-11.12338
 CYCLE:   734 TIME:   0.036 TIME LEFT: 16.53W  GRAD.:     0.240 HEAT:-11.12346
 CYCLE:   735 TIME:   0.036 TIME LEFT: 16.53W  GRAD.:     0.242 HEAT:-11.12244
 CYCLE:   736 TIME:   0.038 TIME LEFT: 16.53W  GRAD.:     0.254 HEAT:-11.12208
 CYCLE:   737 TIME:   0.038 TIME LEFT: 16.53W  GRAD.:     0.613 HEAT:-11.12132
 CYCLE:   738 TIME:   0.039 TIME LEFT: 16.53W  GRAD.:     0.240 HEAT:-11.12350
 CYCLE:   739 TIME:   0.036 TIME LEFT: 16.53W  GRAD.:     0.240 HEAT:-11.12345
 CYCLE:   740 TIME:   0.038 TIME LEFT: 16.53W  GRAD.:     0.240 HEAT:-11.12347
 CYCLE:   741 TIME:   0.036 TIME LEFT: 16.53W  GRAD.:     0.240 HEAT:-11.12344
 CYCLE:   742 TIME:   0.036 TIME LEFT: 16.53W  GRAD.:     0.241 HEAT:-11.12347
 CYCLE:   743 TIME:   0.037 TIME LEFT: 16.53W  GRAD.:     0.241 HEAT:-11.12250
 CYCLE:   744 TIME:   0.039 TIME LEFT: 16.53W  GRAD.:     0.351 HEAT:-11.12333
 CYCLE:   745 TIME:   0.038 TIME LEFT: 16.53W  GRAD.:     0.240 HEAT:-11.12344
 CYCLE:   746 TIME:   0.036 TIME LEFT: 16.53W  GRAD.:     0.240 HEAT:-11.12345
 CYCLE:   747 TIME:   0.036 TIME LEFT: 16.53W  GRAD.:     0.240 HEAT:-11.12344
 CYCLE:   748 TIME:   0.036 TIME LEFT: 16.53W  GRAD.:     0.240 HEAT:-11.12345
 CYCLE:   749 TIME:   0.036 TIME LEFT: 16.53W  GRAD.:     0.240 HEAT:-11.12345
 CYCLE:   750 TIME:   0.036 TIME LEFT: 16.53W  GRAD.:     0.243 HEAT:-11.12342
 CYCLE:   751 TIME:   0.038 TIME LEFT: 16.53W  GRAD.:     0.262 HEAT:-11.12352
 CYCLE:   752 TIME:   0.037 TIME LEFT: 16.53W  GRAD.:     0.240 HEAT:-11.12348
 CYCLE:   753 TIME:   0.036 TIME LEFT: 16.53W  GRAD.:     0.240 HEAT:-11.12346
 CYCLE:   754 TIME:   0.036 TIME LEFT: 16.53W  GRAD.:     0.240 HEAT:-11.12346
 CYCLE:   755 TIME:   0.036 TIME LEFT: 16.53W  GRAD.:     0.240 HEAT:-11.12344
 CYCLE:   756 TIME:   0.036 TIME LEFT: 16.53W  GRAD.:     0.239 HEAT:-11.12345
 CYCLE:   757 TIME:   0.036 TIME LEFT: 16.53W  GRAD.:     0.245 HEAT:-11.12314
 CYCLE:   758 TIME:   0.037 TIME LEFT: 16.53W  GRAD.:     0.288 HEAT:-11.12246
 CYCLE:   759 TIME:   0.038 TIME LEFT: 16.53W  GRAD.:     0.240 HEAT:-11.12349
 CYCLE:   760 TIME:   0.036 TIME LEFT: 16.53W  GRAD.:     0.241 HEAT:-11.12340
 CYCLE:   761 TIME:   0.036 TIME LEFT: 16.53W  GRAD.:     0.239 HEAT:-11.12348
 CYCLE:   762 TIME:   0.036 TIME LEFT: 16.53W  GRAD.:     0.241 HEAT:-11.12340
 CYCLE:   763 TIME:   0.036 TIME LEFT: 16.53W  GRAD.:     0.239 HEAT:-11.12354
 CYCLE:   764 TIME:   0.036 TIME LEFT: 16.53W  GRAD.:     0.250 HEAT:-11.12311
 CYCLE:   765 TIME:   0.037 TIME LEFT: 16.53W  GRAD.:     0.270 HEAT:-11.12111
 CYCLE:   766 TIME:   0.038 TIME LEFT: 16.53W  GRAD.:     0.241 HEAT:-11.12338
 CYCLE:   767 TIME:   0.036 TIME LEFT: 16.53W  GRAD.:     0.239 HEAT:-11.12208
 CYCLE:   768 TIME:   0.036 TIME LEFT: 16.53W  GRAD.:     0.239 HEAT:-11.12206
 CYCLE:   769 TIME:   0.036 TIME LEFT: 16.53W  GRAD.:     0.240 HEAT:-11.12205
 CYCLE:   770 TIME:   0.036 TIME LEFT: 16.53W  GRAD.:     0.240 HEAT:-11.12344
 CYCLE:   771 TIME:   0.037 TIME LEFT: 16.53W  GRAD.:     0.265 HEAT:-11.12210
 CYCLE:   772 TIME:   0.036 TIME LEFT: 16.53W  GRAD.:     0.241 HEAT:-11.12343
 CYCLE:   773 TIME:   0.037 TIME LEFT: 16.53W  GRAD.:     0.243 HEAT:-11.12218
 CYCLE:   774 TIME:   0.038 TIME LEFT: 16.53W  GRAD.:     0.245 HEAT:-11.12219
 CYCLE:   775 TIME:   0.037 TIME LEFT: 16.53W  GRAD.:     0.241 HEAT:-11.12228
 CYCLE:   776 TIME:   0.038 TIME LEFT: 16.53W  GRAD.:     0.321 HEAT:-11.12133
 CYCLE:   777 TIME:   0.039 TIME LEFT: 16.53W  GRAD.:     0.239 HEAT:-11.12206
 CYCLE:   778 TIME:   0.036 TIME LEFT: 16.53W  GRAD.:     0.239 HEAT:-11.12206
 CYCLE:   779 TIME:   0.036 TIME LEFT: 16.53W  GRAD.:     0.240 HEAT:-11.12201
 CYCLE:   780 TIME:   0.036 TIME LEFT: 16.53W  GRAD.:     0.240 HEAT:-11.12206
 CYCLE:   781 TIME:   0.036 TIME LEFT: 16.53W  GRAD.:     0.244 HEAT:-11.12340
 CYCLE:   782 TIME:   0.036 TIME LEFT: 16.53W  GRAD.:     0.255 HEAT:-11.12110
 CYCLE:   783 TIME:   0.036 TIME LEFT: 16.53W  GRAD.:     0.240 HEAT:-11.12345
 CYCLE:   784 TIME:   0.036 TIME LEFT: 16.53W  GRAD.:     0.241 HEAT:-11.12345
 CYCLE:   785 TIME:   0.036 TIME LEFT: 16.53W  GRAD.:     0.240 HEAT:-11.12345
 CYCLE:   786 TIME:   0.036 TIME LEFT: 16.53W  GRAD.:     0.241 HEAT:-11.12199
 CYCLE:   787 TIME:   0.038 TIME LEFT: 16.53W  GRAD.:     0.284 HEAT:-11.12495
 CYCLE:   788 TIME:   0.037 TIME LEFT: 16.53W  GRAD.:     0.242 HEAT:-11.12342
 CYCLE:   789 TIME:   0.036 TIME LEFT: 16.53W  GRAD.:     0.242 HEAT:-11.12117
 CYCLE:   790 TIME:   0.036 TIME LEFT: 16.53W  GRAD.:     0.243 HEAT:-11.12345
 CYCLE:   791 TIME:   0.036 TIME LEFT: 16.53W  GRAD.:     0.240 HEAT:-11.12340
 CYCLE:   792 TIME:   0.036 TIME LEFT: 16.53W  GRAD.:     0.253 HEAT:-11.12207
 CYCLE:   793 TIME:   0.036 TIME LEFT: 16.53W  GRAD.:     0.299 HEAT:-11.12113
 CYCLE:   794 TIME:   0.036 TIME LEFT: 16.53W  GRAD.:     0.239 HEAT:-11.12199
 CYCLE:   795 TIME:   0.038 TIME LEFT: 16.53W  GRAD.:     0.253 HEAT:-11.12308
 CYCLE:   796 TIME:   0.037 TIME LEFT: 16.53W  GRAD.:     0.244 HEAT:-11.12212
 CYCLE:   797 TIME:   0.036 TIME LEFT: 16.53W  GRAD.:     0.241 HEAT:-11.12345
 CYCLE:   798 TIME:   0.037 TIME LEFT: 16.53W  GRAD.:     0.243 HEAT:-11.12301
 CYCLE:   799 TIME:   0.037 TIME LEFT: 16.53W  GRAD.:     0.243 HEAT:-11.12216
 CYCLE:   800 TIME:   0.038 TIME LEFT: 16.53W  GRAD.:     0.258 HEAT:-11.12299
 CYCLE:   801 TIME:   0.037 TIME LEFT: 16.53W  GRAD.:     0.240 HEAT:-11.12347
 CYCLE:   802 TIME:   0.036 TIME LEFT: 16.53W  GRAD.:     0.240 HEAT:-11.12343
 CYCLE:   803 TIME:   0.036 TIME LEFT: 16.53W  GRAD.:     0.240 HEAT:-11.12351
 CYCLE:   804 TIME:   0.036 TIME LEFT: 16.53W  GRAD.:     0.240 HEAT:-11.12331
 CYCLE:   805 TIME:   0.037 TIME LEFT: 16.53W  GRAD.:     0.244 HEAT:-11.12230
 CYCLE:   806 TIME:   0.039 TIME LEFT: 16.53W  GRAD.:     0.370 HEAT:-11.12682
 CYCLE:   807 TIME:   0.038 TIME LEFT: 16.53W  GRAD.:     0.241 HEAT:-11.12353
 CYCLE:   808 TIME:   0.036 TIME LEFT: 16.53W  GRAD.:     0.241 HEAT:-11.12343
 CYCLE:   809 TIME:   0.037 TIME LEFT: 16.53W  GRAD.:     0.240 HEAT:-11.12345
 CYCLE:   810 TIME:   0.036 TIME LEFT: 16.53W  GRAD.:     0.242 HEAT:-11.12342
 CYCLE:   811 TIME:   0.036 TIME LEFT: 16.53W  GRAD.:     0.251 HEAT:-11.12323
 CYCLE:   812 TIME:   0.038 TIME LEFT: 16.53W  GRAD.:     0.328 HEAT:-11.12098
 CYCLE:   813 TIME:   0.037 TIME LEFT: 16.53W  GRAD.:     0.240 HEAT:-11.12345
 CYCLE:   814 TIME:   0.037 TIME LEFT: 16.53W  GRAD.:     0.241 HEAT:-11.12320
 CYCLE:   815 TIME:   0.035 TIME LEFT: 16.53W  GRAD.:     0.240 HEAT:-11.12345
 CYCLE:   816 TIME:   0.036 TIME LEFT: 16.53W  GRAD.:     0.240 HEAT:-11.12340
 CYCLE:   817 TIME:   0.037 TIME LEFT: 16.53W  GRAD.:     0.240 HEAT:-11.12353
 CYCLE:   818 TIME:   0.037 TIME LEFT: 16.53W  GRAD.:     0.242 HEAT:-11.12240
 CYCLE:   819 TIME:   0.038 TIME LEFT: 16.53W  GRAD.:     0.285 HEAT:-11.12685
 CYCLE:   820 TIME:   0.039 TIME LEFT: 16.53W  GRAD.:     0.242 HEAT:-11.12349
 CYCLE:   821 TIME:   0.036 TIME LEFT: 16.53W  GRAD.:     0.240 HEAT:-11.12347
 CYCLE:   822 TIME:   0.036 TIME LEFT: 16.53W  GRAD.:     0.240 HEAT:-11.12347
 CYCLE:   823 TIME:   0.036 TIME LEFT: 16.53W  GRAD.:     0.240 HEAT:-11.12346
 CYCLE:   824 TIME:   0.035 TIME LEFT: 16.53W  GRAD.:     0.242 HEAT:-11.12348
 CYCLE:   825 TIME:   0.038 TIME LEFT: 16.53W  GRAD.:     0.255 HEAT:-11.12340
 CYCLE:   826 TIME:   0.036 TIME LEFT: 16.53W  GRAD.:     0.240 HEAT:-11.12344
 CYCLE:   827 TIME:   0.035 TIME LEFT: 16.53W  GRAD.:     0.241 HEAT:-11.12343
 CYCLE:   828 TIME:   0.036 TIME LEFT: 16.53W  GRAD.:     0.242 HEAT:-11.12346
 CYCLE:   829 TIME:   0.036 TIME LEFT: 16.53W  GRAD.:     0.249 HEAT:-11.12252
 CYCLE:   830 TIME:   0.038 TIME LEFT: 16.53W  GRAD.:     0.276 HEAT:-11.12217
 CYCLE:   831 TIME:   0.036 TIME LEFT: 16.53W  GRAD.:     0.240 HEAT:-11.12348
 CYCLE:   832 TIME:   0.036 TIME LEFT: 16.53W  GRAD.:     0.251 HEAT:-11.12229
 CYCLE:   833 TIME:   0.036 TIME LEFT: 16.53W  GRAD.:     0.240 HEAT:-11.12348
 CYCLE:   834 TIME:   0.036 TIME LEFT: 16.53W  GRAD.:     0.243 HEAT:-11.12342
 CYCLE:   835 TIME:   0.035 TIME LEFT: 16.53W  GRAD.:     0.246 HEAT:-11.12256
 CYCLE:   836 TIME:   0.038 TIME LEFT: 16.53W  GRAD.:     0.296 HEAT:-11.12319
 CYCLE:   837 TIME:   0.037 TIME LEFT: 16.53W  GRAD.:     0.239 HEAT:-11.12346
 CYCLE:   838 TIME:   0.036 TIME LEFT: 16.53W  GRAD.:     0.240 HEAT:-11.12345
 CYCLE:   839 TIME:   0.036 TIME LEFT: 16.53W  GRAD.:     0.240 HEAT:-11.12347
 CYCLE:   840 TIME:   0.036 TIME LEFT: 16.53W  GRAD.:     0.240 HEAT:-11.12345
 CYCLE:   841 TIME:   0.036 TIME LEFT: 16.53W  GRAD.:     0.241 HEAT:-11.12349
 CYCLE:   842 TIME:   0.036 TIME LEFT: 16.53W  GRAD.:     0.248 HEAT:-11.12242
 CYCLE:   843 TIME:   0.038 TIME LEFT: 16.53W  GRAD.:     0.463 HEAT:-11.12630
 CYCLE:   844 TIME:   0.039 TIME LEFT: 16.53W  GRAD.:     0.240 HEAT:-11.12344
 CYCLE:   845 TIME:   0.036 TIME LEFT: 16.53W  GRAD.:     0.240 HEAT:-11.12345
 CYCLE:   846 TIME:   0.036 TIME LEFT: 16.53W  GRAD.:     0.240 HEAT:-11.12343
 CYCLE:   847 TIME:   0.038 TIME LEFT: 16.53W  GRAD.:     0.240 HEAT:-11.12346
 CYCLE:   848 TIME:   0.042 TIME LEFT: 16.53W  GRAD.:     0.244 HEAT:-11.12248
 CYCLE:   849 TIME:   0.044 TIME LEFT: 16.53W  GRAD.:     0.270 HEAT:-11.12430
 CYCLE:   850 TIME:   0.044 TIME LEFT: 16.53W  GRAD.:     0.241 HEAT:-11.12349
 CYCLE:   851 TIME:   0.041 TIME LEFT: 16.53W  GRAD.:     0.241 HEAT:-11.12252
 CYCLE:   852 TIME:   0.042 TIME LEFT: 16.53W  GRAD.:     0.240 HEAT:-11.12346
 CYCLE:   853 TIME:   0.045 TIME LEFT: 16.53W  GRAD.:     0.241 HEAT:-11.12346
 CYCLE:   854 TIME:   0.044 TIME LEFT: 16.53W  GRAD.:     0.244 HEAT:-11.12250
 CYCLE:   855 TIME:   0.038 TIME LEFT: 16.53W  GRAD.:     0.274 HEAT:-11.12426
 CYCLE:   856 TIME:   0.038 TIME LEFT: 16.53W  GRAD.:     0.241 HEAT:-11.12346
 CYCLE:   857 TIME:   0.036 TIME LEFT: 16.53W  GRAD.:     0.240 HEAT:-11.12347
 CYCLE:   858 TIME:   0.036 TIME LEFT: 16.53W  GRAD.:     0.240 HEAT:-11.12347
 CYCLE:   859 TIME:   0.035 TIME LEFT: 16.53W  GRAD.:     0.241 HEAT:-11.12344
 CYCLE:   860 TIME:   0.036 TIME LEFT: 16.53W  GRAD.:     0.241 HEAT:-11.12352
 CYCLE:   861 TIME:   0.037 TIME LEFT: 16.53W  GRAD.:     0.250 HEAT:-11.12244
 CYCLE:   862 TIME:   0.038 TIME LEFT: 16.53W  GRAD.:     0.443 HEAT:-11.12571
 CYCLE:   863 TIME:   0.039 TIME LEFT: 16.53W  GRAD.:     0.240 HEAT:-11.12342
 CYCLE:   864 TIME:   0.036 TIME LEFT: 16.53W  GRAD.:     0.240 HEAT:-11.12346
 CYCLE:   865 TIME:   0.036 TIME LEFT: 16.53W  GRAD.:     0.240 HEAT:-11.12343
 CYCLE:   866 TIME:   0.036 TIME LEFT: 16.53W  GRAD.:     0.240 HEAT:-11.12347
 CYCLE:   867 TIME:   0.036 TIME LEFT: 16.53W  GRAD.:     0.240 HEAT:-11.12342
 CYCLE:   868 TIME:   0.040 TIME LEFT: 16.53W  GRAD.:     0.244 HEAT:-11.12214
 CYCLE:   869 TIME:   0.042 TIME LEFT: 16.53W  GRAD.:     0.301 HEAT:-11.12186
 CYCLE:   870 TIME:   0.044 TIME LEFT: 16.53W  GRAD.:     0.239 HEAT:-11.12205
 CYCLE:   871 TIME:   0.044 TIME LEFT: 16.53W  GRAD.:     0.241 HEAT:-11.12347
 CYCLE:   872 TIME:   0.038 TIME LEFT: 16.53W  GRAD.:     0.412 HEAT:-11.12311
 CYCLE:   873 TIME:   0.036 TIME LEFT: 16.53W  GRAD.:     0.240 HEAT:-11.12340
 CYCLE:   874 TIME:   0.037 TIME LEFT: 16.53W  GRAD.:     0.242 HEAT:-11.12362
 CYCLE:   875 TIME:   0.038 TIME LEFT: 16.53W  GRAD.:     0.240 HEAT:-11.12243
 CYCLE:   876 TIME:   0.037 TIME LEFT: 16.53W  GRAD.:     0.242 HEAT:-11.12211
 CYCLE:   877 TIME:   0.037 TIME LEFT: 16.53W  GRAD.:     0.246 HEAT:-11.12338
 CYCLE:   878 TIME:   0.039 TIME LEFT: 16.53W  GRAD.:     0.348 HEAT:-11.12388
 CYCLE:   879 TIME:   0.037 TIME LEFT: 16.53W  GRAD.:     0.243 HEAT:-11.12338
 CYCLE:   880 TIME:   0.036 TIME LEFT: 16.53W  GRAD.:     0.241 HEAT:-11.12346
 CYCLE:   881 TIME:   0.036 TIME LEFT: 16.53W  GRAD.:     0.241 HEAT:-11.12351
 CYCLE:   882 TIME:   0.036 TIME LEFT: 16.53W  GRAD.:     0.257 HEAT:-11.12242
 CYCLE:   883 TIME:   0.038 TIME LEFT: 16.53W  GRAD.:     0.303 HEAT:-11.12217
 CYCLE:   884 TIME:   0.036 TIME LEFT: 16.53W  GRAD.:     0.240 HEAT:-11.12347
 CYCLE:   885 TIME:   0.036 TIME LEFT: 16.53W  GRAD.:     0.241 HEAT:-11.12341
 CYCLE:   886 TIME:   0.036 TIME LEFT: 16.53W  GRAD.:     0.240 HEAT:-11.12347
 CYCLE:   887 TIME:   0.036 TIME LEFT: 16.53W  GRAD.:     0.240 HEAT:-11.12342
 CYCLE:   888 TIME:   0.036 TIME LEFT: 16.53W  GRAD.:     0.240 HEAT:-11.12350
 CYCLE:   889 TIME:   0.036 TIME LEFT: 16.53W  GRAD.:     0.246 HEAT:-11.12340
 CYCLE:   890 TIME:   0.038 TIME LEFT: 16.53W  GRAD.:     0.358 HEAT:-11.12630
 CYCLE:   891 TIME:   0.038 TIME LEFT: 16.53W  GRAD.:     0.240 HEAT:-11.12345
 CYCLE:   892 TIME:   0.036 TIME LEFT: 16.53W  GRAD.:     0.240 HEAT:-11.12344
 CYCLE:   893 TIME:   0.036 TIME LEFT: 16.53W  GRAD.:     0.240 HEAT:-11.12346
 CYCLE:   894 TIME:   0.036 TIME LEFT: 16.53W  GRAD.:     0.240 HEAT:-11.12343
 CYCLE:   895 TIME:   0.036 TIME LEFT: 16.53W  GRAD.:     0.241 HEAT:-11.12349
 CYCLE:   896 TIME:   0.036 TIME LEFT: 16.53W  GRAD.:     0.255 HEAT:-11.12236
 CYCLE:   897 TIME:   0.038 TIME LEFT: 16.53W  GRAD.:     0.509 HEAT:-11.12678
 CYCLE:   898 TIME:   0.039 TIME LEFT: 16.53W  GRAD.:     0.240 HEAT:-11.12343
 CYCLE:   899 TIME:   0.036 TIME LEFT: 16.53W  GRAD.:     0.240 HEAT:-11.12342
 CYCLE:   900 TIME:   0.036 TIME LEFT: 16.53W  GRAD.:     0.240 HEAT:-11.12345
 CYCLE:   901 TIME:   0.036 TIME LEFT: 16.53W  GRAD.:     0.240 HEAT:-11.12341
 CYCLE:   902 TIME:   0.036 TIME LEFT: 16.53W  GRAD.:     0.241 HEAT:-11.12351
 CYCLE:   903 TIME:   0.036 TIME LEFT: 16.53W  GRAD.:     0.245 HEAT:-11.12245
 CYCLE:   904 TIME:   0.039 TIME LEFT: 16.53W  GRAD.:     0.515 HEAT:-11.12495
 CYCLE:   905 TIME:   0.038 TIME LEFT: 16.53W  GRAD.:     0.240 HEAT:-11.12343
 CYCLE:   906 TIME:   0.036 TIME LEFT: 16.53W  GRAD.:     0.240 HEAT:-11.12347
 CYCLE:   907 TIME:   0.036 TIME LEFT: 16.53W  GRAD.:     0.240 HEAT:-11.12343
 CYCLE:   908 TIME:   0.036 TIME LEFT: 16.53W  GRAD.:     0.240 HEAT:-11.12347
 CYCLE:   909 TIME:   0.036 TIME LEFT: 16.53W  GRAD.:     0.240 HEAT:-11.12341
 CYCLE:   910 TIME:   0.036 TIME LEFT: 16.53W  GRAD.:     0.244 HEAT:-11.12221
 CYCLE:   911 TIME:   0.038 TIME LEFT: 16.53W  GRAD.:     0.314 HEAT:-11.12200
 CYCLE:   912 TIME:   0.037 TIME LEFT: 16.53W  GRAD.:     0.242 HEAT:-11.12354
 CYCLE:   913 TIME:   0.036 TIME LEFT: 16.53W  GRAD.:     0.240 HEAT:-11.12343
 CYCLE:   914 TIME:   0.036 TIME LEFT: 16.53W  GRAD.:     0.240 HEAT:-11.12351
 CYCLE:   915 TIME:   0.036 TIME LEFT: 16.53W  GRAD.:     0.240 HEAT:-11.12341
 CYCLE:   916 TIME:   0.036 TIME LEFT: 16.53W  GRAD.:     0.241 HEAT:-11.12212
 CYCLE:   917 TIME:   0.036 TIME LEFT: 16.53W  GRAD.:     0.273 HEAT:-11.12223
 CYCLE:   918 TIME:   0.036 TIME LEFT: 16.53W  GRAD.:     0.240 HEAT:-11.12209
 CYCLE:   919 TIME:   0.037 TIME LEFT: 16.53W  GRAD.:     0.239 HEAT:-11.12340
 CYCLE:   920 TIME:   0.036 TIME LEFT: 16.53W  GRAD.:     0.256 HEAT:-11.12202
 CYCLE:   921 TIME:   0.037 TIME LEFT: 16.53W  GRAD.:     0.286 HEAT:-11.12248
 CYCLE:   922 TIME:   0.037 TIME LEFT: 16.53W  GRAD.:     0.240 HEAT:-11.12348
 CYCLE:   923 TIME:   0.036 TIME LEFT: 16.53W  GRAD.:     0.240 HEAT:-11.12336
 CYCLE:   924 TIME:   0.036 TIME LEFT: 16.53W  GRAD.:     0.240 HEAT:-11.12345
 CYCLE:   925 TIME:   0.036 TIME LEFT: 16.53W  GRAD.:     0.240 HEAT:-11.12334
 CYCLE:   926 TIME:   0.038 TIME LEFT: 16.53W  GRAD.:     0.240 HEAT:-11.12213
 CYCLE:   927 TIME:   0.037 TIME LEFT: 16.53W  GRAD.:     0.264 HEAT:-11.12244
 CYCLE:   928 TIME:   0.036 TIME LEFT: 16.53W  GRAD.:     0.241 HEAT:-11.12346
 CYCLE:   929 TIME:   0.036 TIME LEFT: 16.53W  GRAD.:     0.242 HEAT:-11.12340
 CYCLE:   930 TIME:   0.036 TIME LEFT: 16.53W  GRAD.:     0.242 HEAT:-11.12354
 CYCLE:   931 TIME:   0.036 TIME LEFT: 16.53W  GRAD.:     0.242 HEAT:-11.12311
 CYCLE:   932 TIME:   0.037 TIME LEFT: 16.53W  GRAD.:     0.249 HEAT:-11.12239
 CYCLE:   933 TIME:   0.040 TIME LEFT: 16.53W  GRAD.:     0.642 HEAT:-11.11466
 CYCLE:   934 TIME:   0.038 TIME LEFT: 16.53W  GRAD.:     0.242 HEAT:-11.12350
 CYCLE:   935 TIME:   0.036 TIME LEFT: 16.53W  GRAD.:     0.240 HEAT:-11.12340
 CYCLE:   936 TIME:   0.036 TIME LEFT: 16.53W  GRAD.:     0.240 HEAT:-11.12343
 CYCLE:   937 TIME:   0.036 TIME LEFT: 16.53W  GRAD.:     0.240 HEAT:-11.12341
 CYCLE:   938 TIME:   0.036 TIME LEFT: 16.53W  GRAD.:     0.242 HEAT:-11.12346
 CYCLE:   939 TIME:   0.038 TIME LEFT: 16.53W  GRAD.:     0.265 HEAT:-11.12239
 CYCLE:   940 TIME:   0.036 TIME LEFT: 16.53W  GRAD.:     0.240 HEAT:-11.12339
 CYCLE:   941 TIME:   0.036 TIME LEFT: 16.53W  GRAD.:     0.242 HEAT:-11.12346
 CYCLE:   942 TIME:   0.036 TIME LEFT: 16.53W  GRAD.:     0.241 HEAT:-11.12342
 CYCLE:   943 TIME:   0.036 TIME LEFT: 16.53W  GRAD.:     0.242 HEAT:-11.12351
 CYCLE:   944 TIME:   0.037 TIME LEFT: 16.53W  GRAD.:     0.281 HEAT:-11.12231
 CYCLE:   945 TIME:   0.038 TIME LEFT: 16.53W  GRAD.:     0.240 HEAT:-11.12343
 CYCLE:   946 TIME:   0.040 TIME LEFT: 16.53W  GRAD.:     0.240 HEAT:-11.12346
 CYCLE:   947 TIME:   0.044 TIME LEFT: 16.53W  GRAD.:     0.240 HEAT:-11.12344
 CYCLE:   948 TIME:   0.040 TIME LEFT: 16.53W  GRAD.:     0.240 HEAT:-11.12348
 CYCLE:   949 TIME:   0.042 TIME LEFT: 16.53W  GRAD.:     0.240 HEAT:-11.12246
 CYCLE:   950 TIME:   0.037 TIME LEFT: 16.53W  GRAD.:     0.246 HEAT:-11.12361
 CYCLE:   951 TIME:   0.040 TIME LEFT: 16.53W  GRAD.:     0.396 HEAT:-11.12100
 CYCLE:   952 TIME:   0.039 TIME LEFT: 16.53W  GRAD.:     0.240 HEAT:-11.12346
 CYCLE:   953 TIME:   0.036 TIME LEFT: 16.53W  GRAD.:     0.240 HEAT:-11.12343
 CYCLE:   954 TIME:   0.036 TIME LEFT: 16.53W  GRAD.:     0.240 HEAT:-11.12346
 CYCLE:   955 TIME:   0.036 TIME LEFT: 16.53W  GRAD.:     0.240 HEAT:-11.12342
 CYCLE:   956 TIME:   0.036 TIME LEFT: 16.53W  GRAD.:     0.240 HEAT:-11.12350
 CYCLE:   957 TIME:   0.037 TIME LEFT: 16.53W  GRAD.:     0.241 HEAT:-11.12210
 CYCLE:   958 TIME:   0.039 TIME LEFT: 16.53W  GRAD.:     0.304 HEAT:-11.12545
 CYCLE:   959 TIME:   0.039 TIME LEFT: 16.53W  GRAD.:     0.240 HEAT:-11.12344
 CYCLE:   960 TIME:   0.036 TIME LEFT: 16.53W  GRAD.:     0.240 HEAT:-11.12343
[...]
 TRAVEL      0.0647        C  2 -- Br 12           +7.3% ( 68.0%)    52.0%
 RED. MASS   9.6519        C  5 -- Br  8           +7.3% ( 68.0%)    52.2%
 EFF. MASS  62.8765

 VIBRATION   10    2B1      ATOM PAIR        ENERGY CONTRIBUTION    RADIAL
 FREQ.       281.90        C  5 -- Br  6           +7.2% ( 81.1%)     1.8%
 T-DIPOLE    0.4887       Br  1 --  C  2           +7.2% ( 81.1%)     1.9%
 TRAVEL      0.1298        C 11 -- Br 12           +7.2% ( 81.1%)     1.7%
 RED. MASS   2.1656        C  7 -- Br  8           +7.2% ( 81.1%)     1.8%
 EFF. MASS  15.1100

 VIBRATION   11    3A2      ATOM PAIR        ENERGY CONTRIBUTION    RADIAL
 FREQ.       282.13        C  9 --  O 10           +8.0% ( 88.1%)     0.0%
 T-DIPOLE    0.0000        C  3 --  O  4           +8.0% ( 88.1%)     0.0%
 TRAVEL      0.1083        C  7 --  C  9           +6.7% ( 80.6%)     0.2%
 RED. MASS   4.6283        C  9 --  C 11           +6.7% ( 80.6%)     0.2%
 EFF. MASS  20.3032

 VIBRATION   12    3B2      ATOM PAIR        ENERGY CONTRIBUTION    RADIAL
 FREQ.       324.12        C  2 --  C  3          +10.9% (141.9%)     1.9%
 T-DIPOLE    0.3705        C  7 --  C  9          +10.9% (141.9%)     1.9%
 TRAVEL      0.0809        C  3 --  C  5          +10.9% (141.9%)     1.9%
 RED. MASS   2.7795        C  9 --  C 11          +10.9% (141.9%)     1.9%
 EFF. MASS  31.4511

 VIBRATION   13    3B1      ATOM PAIR        ENERGY CONTRIBUTION    RADIAL
 FREQ.       366.43        C  9 --  O 10          +13.9% ( 58.7%)     0.0%
 T-DIPOLE    1.1499        C  3 --  O  4          +13.9% ( 58.7%)     0.0%
 TRAVEL      0.0903        C  9 --  C 11           +4.9% ( 34.8%)     3.6%
 RED. MASS   4.1422        C  3 --  C  5           +4.9% ( 34.8%)     3.6%
 EFF. MASS  22.0588

 VIBRATION   14    4B2      ATOM PAIR        ENERGY CONTRIBUTION    RADIAL
 FREQ.       410.26        C  3 --  O  4           +7.2% ( 73.4%)     0.1%
 T-DIPOLE    1.5643        C  9 --  O 10           +7.2% ( 73.4%)     0.1%
 TRAVEL      0.0944       Br  1 --  C  3           +7.1% ( 72.6%)    17.7%
 RED. MASS   1.7108       Br  8 --  C  9           +7.1% ( 72.6%)    17.7%
 EFF. MASS  18.7471

 VIBRATION   15    5A1      ATOM PAIR        ENERGY CONTRIBUTION    RADIAL
 FREQ.       480.79        C  9 --  C 11          +13.0% (120.8%)     3.1%
 T-DIPOLE    0.4234        C  7 --  C  9          +13.0% (120.8%)     3.1%
 TRAVEL      0.0907        C  3 --  C  5          +13.0% (120.8%)     3.1%
 RED. MASS   2.5565        C  2 --  C  3          +13.0% (120.8%)     3.1%
 EFF. MASS  16.9687       Br  8 --  C  9          +12.8% (119.6%)     2.5%
                          Br  1 --  C  3          +12.8% (119.6%)     2.5%

 VIBRATION   16    4A2      ATOM PAIR        ENERGY CONTRIBUTION    RADIAL
 FREQ.       575.76        C  5 --  C  7           +9.0% ( 73.5%)     0.0%
 T-DIPOLE    0.0000        C  2 --  C 11           +9.0% ( 73.5%)     0.0%
 TRAVEL      0.0973        C  3 --  C  5           +6.6% ( 63.1%)     0.9%
 RED. MASS   2.0871        C  2 --  C  3           +6.6% ( 63.1%)     0.9%
 EFF. MASS  12.4750

 VIBRATION   17    4B1      ATOM PAIR        ENERGY CONTRIBUTION    RADIAL
 FREQ.       604.34        C  2 --  C 11           +7.9% ( 72.8%)   100.0%
 T-DIPOLE    5.4384        C  5 --  C  7           +7.9% ( 72.8%)   100.0%
 TRAVEL      0.0772        C  9 --  O 10           +5.9% ( 63.3%)     0.0%
 RED. MASS   1.6737        C  3 --  O  4           +5.9% ( 63.3%)     0.0%
 EFF. MASS  18.7402

 VIBRATION   18    5A2      ATOM PAIR        ENERGY CONTRIBUTION    RADIAL
 FREQ.       642.65        C  2 --  C 11           +7.3% ( 66.4%)     0.0%
 T-DIPOLE    0.0000        C  5 --  C  7           +7.3% ( 66.4%)     0.0%
 TRAVEL      0.0906        C  3 --  C  5           +6.9% ( 64.4%)     0.1%
 RED. MASS   1.6663        C  2 --  C  3           +6.9% ( 64.4%)     0.1%
 EFF. MASS  12.7568

 VIBRATION   19    6A1      ATOM PAIR        ENERGY CONTRIBUTION    RADIAL
 FREQ.       702.82        C  3 --  C  5          +12.9% ( 62.3%)     0.0%
 T-DIPOLE    2.3179        C  7 --  C  9          +12.9% ( 62.3%)     0.0%
 TRAVEL      0.0884        C  2 --  C  3          +12.9% ( 62.3%)     0.0%
 RED. MASS   3.2236        C  9 --  C 11          +12.9% ( 62.3%)     0.0%
 EFF. MASS  12.2719        C  3 --  O  4          +10.4% ( 56.1%)     0.0%
                           C  9 --  O 10          +10.4% ( 56.1%)     0.0%

 VIBRATION   20    6A2      ATOM PAIR        ENERGY CONTRIBUTION    RADIAL
 FREQ.       777.72        C  5 -- Br  6           +7.2% ( 71.4%)    93.1%
 T-DIPOLE    0.0000        C  7 -- Br  8           +7.2% ( 71.4%)    93.1%
 TRAVEL      0.0768       Br  1 --  C  2           +7.2% ( 71.4%)    93.1%
 RED. MASS   2.3424        C 11 -- Br 12           +7.2% ( 71.4%)    93.1%
 EFF. MASS  14.6970

 VIBRATION   21    5B2      ATOM PAIR        ENERGY CONTRIBUTION    RADIAL
 FREQ.       809.70        C  2 --  C  3          +10.7% ( 52.4%)     0.3%
 T-DIPOLE    1.0907        C  7 --  C  9          +10.7% ( 52.4%)     0.3%
 TRAVEL      0.0822        C  9 --  C 11          +10.7% ( 52.4%)     0.3%
 RED. MASS   1.9163        C  3 --  C  5          +10.7% ( 52.4%)     0.3%
 EFF. MASS  12.3268

 VIBRATION   22    6B2      ATOM PAIR        ENERGY CONTRIBUTION    RADIAL
 FREQ.       856.38        C  9 --  C 11           +8.5% ( 70.2%)     4.6%
 T-DIPOLE    1.0719        C  3 --  C  5           +8.5% ( 70.2%)     4.6%
 TRAVEL      0.0763        C  2 --  C  3           +8.5% ( 70.2%)     4.6%
 RED. MASS   1.7279        C  7 --  C  9           +8.5% ( 70.2%)     4.6%
 EFF. MASS  13.5399

 VIBRATION   23    7A1      ATOM PAIR        ENERGY CONTRIBUTION    RADIAL
 FREQ.       998.77        C  5 --  C  7          +10.7% ( 58.2%)   100.0%
 T-DIPOLE    0.3458        C  2 --  C 11          +10.7% ( 58.2%)   100.0%
 TRAVEL      0.0715        C  7 --  C  9           +7.0% ( 47.2%)    86.8%
 RED. MASS   2.2824        C  9 --  C 11           +7.0% ( 47.2%)    86.8%
 EFF. MASS  13.1809

 VIBRATION   24    7B2      ATOM PAIR        ENERGY CONTRIBUTION    RADIAL
 FREQ.      1031.47        C  2 --  C 11          +11.1% ( 62.9%)     0.0%
 T-DIPOLE    7.5755        C  5 --  C  7          +11.1% ( 62.9%)     0.0%
 TRAVEL      0.0728        C  3 --  C  5           +7.2% ( 50.5%)    99.2%
 RED. MASS   2.5381        C  2 --  C  3           +7.2% ( 50.5%)    99.2%
 EFF. MASS  12.3217

 VIBRATION   25    7A2      ATOM PAIR        ENERGY CONTRIBUTION    RADIAL
 FREQ.      1147.43        C  3 --  C  5          +11.2% ( 60.9%)    84.2%
 T-DIPOLE    0.0000        C  2 --  C  3          +11.2% ( 60.9%)    84.2%
 TRAVEL      0.0699        C  7 --  C  9          +11.2% ( 60.9%)    84.2%
 RED. MASS   2.2637        C  9 --  C 11          +11.2% ( 60.9%)    84.2%
 EFF. MASS  12.0138

 VIBRATION   26    5B1      ATOM PAIR        ENERGY CONTRIBUTION    RADIAL
 FREQ.      1190.33        C  7 --  C  9          +12.0% ( 58.3%)    68.1%
 T-DIPOLE    5.2722        C  9 --  C 11          +12.0% ( 58.3%)    68.1%
 TRAVEL      0.0684        C  2 --  C  3          +12.0% ( 58.3%)    68.1%
 RED. MASS   2.8168        C  3 --  C  5          +12.0% ( 58.3%)    68.1%
 EFF. MASS  12.0973

 VIBRATION   27    8A1      ATOM PAIR        ENERGY CONTRIBUTION    RADIAL
 FREQ.      1731.61        C  5 --  C  7          +14.8% ( 64.3%)   100.0%
 T-DIPOLE    1.8974        C  2 --  C 11          +14.8% ( 64.3%)   100.0%
 TRAVEL      0.0565        C  7 --  C  9           +6.4% ( 42.1%)    32.8%
 RED. MASS   2.1475        C  2 --  C  3           +6.4% ( 42.1%)    32.8%
 EFF. MASS  12.1821

 VIBRATION   28    6B1      ATOM PAIR        ENERGY CONTRIBUTION    RADIAL
 FREQ.      1738.39        C  2 --  C 11          +18.0% ( 70.6%)   100.0%
 T-DIPOLE    5.4824        C  5 --  C  7          +18.0% ( 70.6%)   100.0%
 TRAVEL      0.0568        C  7 --  C  9           +5.4% ( 38.5%)    37.8%
 RED. MASS   2.9807        C  2 --  C  3           +5.4% ( 38.5%)    37.8%
 EFF. MASS  12.0191

 VIBRATION   29    8B2      ATOM PAIR        ENERGY CONTRIBUTION    RADIAL
 FREQ.      1773.23        C  3 --  O  4          +23.0% ( 71.1%)   100.0%
 T-DIPOLE   12.2789        C  9 --  O 10          +23.0% ( 71.1%)   100.0%
 TRAVEL      0.0530        C  3 --  C  5           +9.0% ( 44.5%)    28.8%
 RED. MASS   3.4313        C  7 --  C  9           +9.0% ( 44.5%)    28.9%
 EFF. MASS  13.5206

 VIBRATION   30    9A1      ATOM PAIR        ENERGY CONTRIBUTION    RADIAL
 FREQ.      1815.44        C  9 --  O 10          +18.7% ( 63.0%)   100.0%
 T-DIPOLE    1.8680        C  3 --  O  4          +18.7% ( 63.0%)   100.0%
 TRAVEL      0.0528        C  2 --  C  3           +7.9% ( 41.1%)    35.5%
 RED. MASS   2.4091        C  7 --  C  9           +7.9% ( 41.1%)    35.5%
 EFF. MASS  13.3042

 SYMMETRY NUMBER FOR POINT-GROUP C2v =  2


          SYSTEM IS A GROUND STATE


                                                                                                                                                                                                                                                 
 SJ000001479-2_T001S001I001C01: Free energy calculation                                                                                                                                                                                          


          MOLECULE IS NOT LINEAR

          THERE ARE 30 GENUINE VIBRATIONS IN THIS SYSTEM
          THIS THERMODYNAMICS CALCULATION IS LIMITED TO
          MOLECULES WHICH HAVE NO INTERNAL ROTATIONS




                    CALCULATED THERMODYNAMIC PROPERTIES
                                          *
   TEMP. (K)   PARTITION FUNCTION   H.O.F.    ENTHALPY  HEAT CAPACITY ENTROPY
                                   KCAL/MOL   CAL/MOLE    CAL/K/MOL  CAL/K/MOL


 298.00  VIB.     0.1656D+06                  5945.0462    33.6088    43.8303
         ROT.     0.4295D+07                   888.2813     2.9808    33.3311
         INT.     0.7110D+12                  6833.3275    36.5896    77.1615
         TRA.     0.8431D+28                  1480.4688     4.9680    44.0195
         TOT.                      -11.123    8313.7963    41.5576   121.1810

 200.00  VIB.     0.5060D+04                  2994.6444    26.2424    31.9223
         ROT.     0.2361D+07                   596.1620     2.9808    32.1425
         INT.     0.1195D+11                  3590.8063    29.2232    64.0648
         TRA.     0.4636D+28                   993.6033     4.9680    42.0384
         TOT.                      -14.853    4584.4096    34.1912   106.1032

 210.00  VIB.     0.7358D+04                  3261.3642    27.0973    33.2235
         ROT.     0.2541D+07                   625.9700     2.9808    32.2879
         INT.     0.1869D+11                  3887.3343    30.0781    65.5114
         TRA.     0.4988D+28                  1043.2834     4.9680    42.2808
         TOT.                      -14.507    4930.6177    35.0461   107.7922

 220.00  VIB.     0.1065D+05                  3536.5057    27.9268    34.5033
         ROT.     0.2724D+07                   655.7781     2.9808    32.4266
         INT.     0.2902D+11                  4192.2839    30.9077    66.9299
         TRA.     0.5348D+28                  1092.9636     4.9680    42.5119
         TOT.                      -14.152    5285.2474    35.8757   109.4417

 230.00  VIB.     0.1535D+05                  3819.8193    28.7318    35.7625
         ROT.     0.2912D+07                   685.5862     2.9808    32.5591
         INT.     0.4470D+11                  4505.4055    31.7126    68.3216
         TRA.     0.5717D+28                  1142.6437     4.9680    42.7327
         TOT.                      -13.789    5648.0493    36.6807   111.0543

 240.00  VIB.     0.2203D+05                  4111.0632    29.5130    37.0019
         ROT.     0.3104D+07                   715.3943     2.9808    32.6859
         INT.     0.6838D+11                  4826.4575    32.4938    69.6879
         TRA.     0.6094D+28                  1192.3239     4.9680    42.9442
         TOT.                      -13.418    6018.7814    37.4619   112.6320

 250.00  VIB.     0.3149D+05                  4410.0028    30.2711    38.2222
         ROT.     0.3300D+07                   745.2024     2.9808    32.8076
         INT.     0.1039D+12                  5155.2053    33.2519    71.0298
         TRA.     0.6478D+28                  1242.0041     4.9680    43.1470
         TOT.                      -13.040    6397.2093    38.2199   114.1767

 260.00  VIB.     0.4482D+05                  4716.4104    31.0067    39.4238
         ROT.     0.3500D+07                   775.0105     2.9808    32.9245
         INT.     0.1569D+12                  5491.4210    33.9875    72.3483
         TRA.     0.6871D+28                  1291.6842     4.9680    43.3418
         TOT.                      -12.654    6783.1052    38.9556   115.6902

 270.00  VIB.     0.6355D+05                  5030.0647    31.7206    40.6075
         ROT.     0.3704D+07                   804.8186     2.9808    33.0370
         INT.     0.2354D+12                  5834.8834    34.7014    73.6445
         TRA.     0.7271D+28                  1341.3644     4.9680    43.5293
         TOT.                      -12.261    7176.2478    39.6694   117.1738

 280.00  VIB.     0.8976D+05                  5350.7510    32.4132    41.7737
         ROT.     0.3911D+07                   834.6267     2.9808    33.1454
         INT.     0.3511D+12                  6185.3778    35.3940    74.9191
         TRA.     0.7679D+28                  1391.0445     4.9680    43.7100
         TOT.                      -11.861    7576.4223    40.3621   118.6291

 290.00  VIB.     0.1263D+06                  5678.2610    33.0854    42.9229
         ROT.     0.4123D+07                   864.4348     2.9808    33.2500
         INT.     0.5207D+12                  6542.6958    36.0662    76.1729
         TRA.     0.8094D+28                  1440.7247     4.9680    43.8843
         TOT.                      -11.454    7983.4205    41.0342   120.0572

 300.00  VIB.     0.1771D+06                  6012.3928    33.7377    44.0556
         ROT.     0.4338D+07                   894.2429     2.9808    33.3511
         INT.     0.7682D+12                  6906.6357    36.7185    77.4066
         TRA.     0.8516D+28                  1490.4049     4.9680    44.0527
         TOT.                      -11.040    8397.0406    41.6865   121.4594

 310.00  VIB.     0.2474D+06                  6352.9508    34.3708    45.1722
         ROT.     0.4557D+07                   924.0510     2.9808    33.4488
         INT.     0.1127D+13                  7277.0019    37.3516    78.6210
         TRA.     0.8945D+28                  1540.0850     4.9680    44.2156
         TOT.                      -10.620    8817.0869    42.3196   122.8367

 320.00  VIB.     0.3445D+06                  6699.7460    34.9852    46.2732
         ROT.     0.4779D+07                   953.8591     2.9808    33.5435
         INT.     0.1646D+13                  7653.6051    37.9660    79.8166
         TRA.     0.9382D+28                  1589.7652     4.9680    44.3734
         TOT.                      -10.194    9243.3703    42.9340   124.1900

 330.00  VIB.     0.4780D+06                  7052.5951    35.5817    47.3589
         ROT.     0.5005D+07                   983.6672     2.9808    33.6352
         INT.     0.2392D+13                  8036.2624    38.5625    80.9941
         TRA.     0.9825D+28                  1639.4454     4.9680    44.5263
         TOT.                       -9.762    9675.7077    43.5305   125.5203

 340.00  VIB.     0.6611D+06                  7411.3214    36.1607    48.4298
         ROT.     0.5234D+07                  1013.4753     2.9808    33.7242
         INT.     0.3460D+13                  8424.7967    39.1415    82.1539
         TRA.     0.1027D+29                  1689.1255     4.9680    44.6746
         TOT.                       -9.323   10113.9222    44.1096   126.8285

 350.00  VIB.     0.9113D+06                  7775.7537    36.7230    49.4861
         ROT.     0.5466D+07                  1043.2834     2.9808    33.8106
         INT.     0.4981D+13                  8819.0371    39.7038    83.2967
         TRA.     0.1073D+29                  1738.8057     4.9680    44.8186
         TOT.                       -8.879   10557.8428    44.6718   128.1153

 360.00  VIB.     0.1252D+07                  8145.7267    37.2690    50.5283
         ROT.     0.5702D+07                  1073.0915     2.9808    33.8945
         INT.     0.7141D+13                  9218.8182    40.2498    84.4229
         TRA.     0.1119D+29                  1788.4859     4.9680    44.9585
         TOT.                       -8.430   11007.3041    45.2178   129.3814

 370.00  VIB.     0.1716D+07                  8521.0807    37.7993    51.5567
         ROT.     0.5942D+07                  1102.8996     2.9808    33.9762
         INT.     0.1019D+14                  9623.9803    40.7801    85.5329
         TRA.     0.1166D+29                  1838.1660     4.9680    45.0946
         TOT.                       -7.975   11462.1463    45.7481   130.6276

 380.00  VIB.     0.2343D+07                  8901.6612    38.3144    52.5716
         ROT.     0.6184D+07                  1132.7077     2.9808    34.0557
         INT.     0.1449D+14                 10034.3689    41.2952    86.6274
         TRA.     0.1214D+29                  1887.8462     4.9680    45.2271
         TOT.                       -7.515   11922.2151    46.2632   131.8545

 390.00  VIB.     0.3190D+07                  9287.3190    38.8148    53.5734
         ROT.     0.6430D+07                  1162.5158     2.9808    34.1331
         INT.     0.2051D+14                 10449.8348    41.7956    87.7065
         TRA.     0.1262D+29                  1937.5263     4.9680    45.3562
         TOT.                       -7.050   12387.3611    46.7636   133.0627

 400.00  VIB.     0.4332D+07                  9677.9097    39.3010    54.5622
         ROT.     0.6679D+07                  1192.3239     2.9808    34.2086
         INT.     0.2893D+14                 10870.2336    42.2818    88.7709
         TRA.     0.1311D+29                  1987.2065     4.9680    45.4820
         TOT.                       -6.580   12857.4401    47.2499   134.2528

   *: NOTE: HEATS OF FORMATION ARE RELATIVE TO THE
             ELEMENTS IN THEIR STANDARD STATE AT 298K
              (=  Standard Enthalpy of Formation).
            Heat of Formation at T is calculated as [Escf + (HT - H298.15)-.

            Hvib:  Zero-point energy is not included.
                   Wi < 100 cm-1 are not included.
            Hrot = (3/2)RT
            Htra = (3/2)RT + pV = (5/2)RT

            Heat capacity is Cp, not Cv

                 See Section 8.20 in Manual for further information.   (by TH).

           FORCE CONSTANT IN CARTESIAN COORDINATES (Millidynes/A)

    ATOM   CHEMICAL       X               Y               Z
   NUMBER   SYMBOL  FORCE CONSTANT  FORCE CONSTANT  FORCE CONSTANT

      1      Br        3.629538        0.488043        0.094344
      2       C        7.586237       11.004104        1.781712
      3       C        8.300556       11.996891        3.459920
      4       O        4.284717        9.712136        1.260923
      5       C        8.209267       10.086080        2.076705
      6      Br        0.834016        2.948643        0.429265
      7       C        7.451481       10.842974        2.077598
      8      Br        3.333325        0.450667        0.427933
      9       C        9.166113       11.122989        3.468266
     10       O        5.315485        8.671429        1.270862
     11       C        8.482296       10.107604        1.782152
     12      Br        0.999459        3.118051        0.094415



 TOTAL CPU TIME:            38.47 SECONDS

 == MOPAC DONE ==
