 *******************************************************************************
 ** Site#:  958            For non-commercial use only         Version 9.015L **
 *******************************************************************************
 ** Cite this work as: MOPAC2009, James J. P. Stewart, Stewart Computational  **
 ** Chemistry, Version 9.015L web: HTTP://OpenMOPAC.net                       **
 *******************************************************************************
 **                                                                           **
 **                                MOPAC2009                                  **
 **                                                                           **
 *******************************************************************************

                            PM6 CALCULATION RESULTS


 *******************************************************************************
 *  CALCULATION DONE:                                Thu Sep  8 03:01:23 2011  *
 *  PM6      - The PM6 Hamiltonian to be used
 *  PDBOUT   - PRINT GEOMETY IN PDB FORMAT
 *  MOZYME   - USE LOCALIZED M.O.s IN SOLVING THE SCF EQUATIONS
 *
 *
 *
 *                 CHARGE ON SYSTEM =     0
 *
 *
 *
 *  EPS= 78.400
 *  RSOLV=  1.300
 *  LET      - OVERRIDE SOME SAFETY CHECKS
 *  XYZ      - CARTESIAN COORDINATE SYSTEM TO BE USED
 *  LBFGS    - USE THE LBFGS GEOMETRY OPTIMIZER
 *  1SCF     - DO 1 SCF AND THEN STOP 
 *  T=       - A TIME OF  0.3E+08 SECONDS REQUESTED
 *  DUMP=N   - RESTART FILE WRITTEN EVERY  4320.000 SECONDS
 *  DDMIN=   - MINIMUM TRUST RADIUS  0.000 ANG/RAD
 *  GNORM=   - EXIT WHEN GRADIENT NORM DROPS BELOW .150    
 *  RELSCF   - DEFAULT SCF CRITERION MULTIPLIED BY   0.100    
 *             (DEFAULT SCFCRT= 0.00010)
 *  MULLIK   - THE MULLIKEN ANALYSIS TO BE PERFORMED
 *******************************************************************************
 PM6 T=31411169 DUMP=4320 XYZ EPS=78.40 RSOLV=1.30 MULLIK LBFGS MOZYME PDBOUT +
 CHARGE=0 RELSCF=0.1 LET DDMIN=0.0 GNORM=0.15 1SCF
 SJ000002349-1_T001S001I001C05_002: Geometry optimization step

   ATOM   CHEMICAL          X               Y              Z
  NUMBER   SYMBOL      (ANGSTROMS)     (ANGSTROMS)    (ANGSTROMS)
 
     1       C         -6.6080000  *  -21.585000  *    9.581000  *
     2       C         -6.1430000  *  -21.884000  *   11.007000  *
     3       C         -6.2220000  *  -23.368000  *   11.277000  *
     4       C         -7.1720000  *  -24.111000  *   10.678000  *
     5       C         -7.2460000  *  -25.594000  *   10.943000  *
     6       C         -5.9400000  *  -26.100000  *   11.505000  *
     7       C         -5.0640000  *  -25.235000  *   12.051000  *
     8       C         -3.7520000  *  -25.738000  *   12.606000  *
     9       C         -3.2820000  *  -26.958000  *   11.813000  *
    10       C         -4.3640000  *  -28.028000  *   11.978000  *
    11       C         -5.6600000  *  -27.477000  *   11.447000  *
    12       O         -6.4760000  *  -28.234000  *   10.962000  *
    13       O         -5.3370000  *  -23.922000  *   12.120000  *
    14       C         -8.1040000  *  -23.527000  *    9.801000  *
    15       O         -8.9570000  *  -24.222000  *    9.286000  *
    16       C         -8.0620000  *  -22.056000  *    9.490000  *
    17       H         -5.1120000  *  -21.550000  *   11.128000  *
    18       H         -6.7800000  *  -21.353000  *   11.714000  *
    19       H         -8.0450000  *  -25.793000  *   11.657000  *
    20       H         -3.0030000  *  -24.950000  *   12.534000  *
    21       H         -3.8850000  *  -26.015000  *   13.652000  *
    22       H         -4.0870000  *  -28.920000  *   11.417000  *
    23       H         -4.4750000  *  -28.277000  *   13.034000  *
    24       H         -8.6700000  *  -21.511000  *   10.210000  *
    25       H         -8.4400000  *  -21.882000  *    8.483000  *
    26       C         -7.5440000  *  -26.315000  *    9.653000  *
    27       C         -8.6980000  *  -27.075000  *    9.535000  *
    28       C         -8.9710000  *  -27.737000  *    8.348000  *
    29       C         -8.0910000  *  -27.639000  *    7.283000  *
    30       H         -9.8700000  *  -28.330000  *    8.253000  *
    31       C         -6.9360000  *  -26.878000  *    7.407000  *
    32       C         -6.6690000  *  -26.215000  *    8.588000  *
    33       H         -6.2490000  *  -26.802000  *    6.577000  *
    34       H         -5.7710000  *  -25.622000  *    8.682000  *
    35       O         -9.5620000  *  -27.169000  *   10.580000  *
    36       H        -10.0960000  *  -27.976000  *   10.578000  *
    37       O         -8.3550000  *  -28.287000  *    6.119000  *
    38       H         -7.8750000  *  -29.120000  *    6.014000  *
    39       C         -6.5260000  *  -20.082000  *    9.307000  *
    40       H         -5.6040000  *  -19.861000  *    8.768000  *
    41       H         -7.3810000  *  -19.775000  *    8.705000  *
    42       H         -6.5330000  *  -19.540000  *   10.252000  *
    43       C         -5.7440000  *  -22.349000  *    8.577000  *
    44       H         -4.9500000  *  -22.876000  *    9.107000  *
    45       H         -6.3610000  *  -23.068000  *    8.039000  *
    46       H         -5.3030000  *  -21.648000  *    7.868000  *
    47       C         -3.1260000  *  -26.595000  *   10.335000  *
    48       H         -3.7890000  *  -27.219000  *    9.736000  *
    49       H         -3.3850000  *  -25.547000  *   10.189000  *
    50       H         -2.0940000  *  -26.762000  *   10.027000  *
    51       C         -1.9510000  *  -27.465000  *   12.371000  *
    52       H         -1.8870000  *  -27.225000  *   13.432000  *
    53       H         -1.8900000  *  -28.545000  *   12.238000  *
    54       H         -1.1290000  *  -26.987000  *   11.840000  *
 


          CARTESIAN COORDINATES 

    NO.       ATOM         X         Y         Z

     1         C       -6.6080  -21.5850    9.5810
     2         C       -6.1430  -21.8840   11.0070
     3         C       -6.2220  -23.3680   11.2770
     4         C       -7.1720  -24.1110   10.6780
     5         C       -7.2460  -25.5940   10.9430
     6         C       -5.9400  -26.1000   11.5050
     7         C       -5.0640  -25.2350   12.0510
     8         C       -3.7520  -25.7380   12.6060
     9         C       -3.2820  -26.9580   11.8130
    10         C       -4.3640  -28.0280   11.9780
    11         C       -5.6600  -27.4770   11.4470
    12         O       -6.4760  -28.2340   10.9620
    13         O       -5.3370  -23.9220   12.1200
    14         C       -8.1040  -23.5270    9.8010
    15         O       -8.9570  -24.2220    9.2860
    16         C       -8.0620  -22.0560    9.4900
    17         H       -5.1120  -21.5500   11.1280
    18         H       -6.7800  -21.3530   11.7140
    19         H       -8.0450  -25.7930   11.6570
    20         H       -3.0030  -24.9500   12.5340
    21         H       -3.8850  -26.0150   13.6520
    22         H       -4.0870  -28.9200   11.4170
    23         H       -4.4750  -28.2770   13.0340
    24         H       -8.6700  -21.5110   10.2100
    25         H       -8.4400  -21.8820    8.4830
    26         C       -7.5440  -26.3150    9.6530
    27         C       -8.6980  -27.0750    9.5350
    28         C       -8.9710  -27.7370    8.3480
    29         C       -8.0910  -27.6390    7.2830
    30         H       -9.8700  -28.3300    8.2530
    31         C       -6.9360  -26.8780    7.4070
    32         C       -6.6690  -26.2150    8.5880
    33         H       -6.2490  -26.8020    6.5770
    34         H       -5.7710  -25.6220    8.6820
    35         O       -9.5620  -27.1690   10.5800
    36         H      -10.0960  -27.9760   10.5780
    37         O       -8.3550  -28.2870    6.1190
    38         H       -7.8750  -29.1200    6.0140
    39         C       -6.5260  -20.0820    9.3070
    40         H       -5.6040  -19.8610    8.7680
    41         H       -7.3810  -19.7750    8.7050
    42         H       -6.5330  -19.5400   10.2520
    43         C       -5.7440  -22.3490    8.5770
    44         H       -4.9500  -22.8760    9.1070
    45         H       -6.3610  -23.0680    8.0390
    46         H       -5.3030  -21.6480    7.8680
    47         C       -3.1260  -26.5950   10.3350
    48         H       -3.7890  -27.2190    9.7360
    49         H       -3.3850  -25.5470   10.1890
    50         H       -2.0940  -26.7620   10.0270
    51         C       -1.9510  -27.4650   12.3710
    52         H       -1.8870  -27.2250   13.4320
    53         H       -1.8900  -28.5450   12.2380
    54         H       -1.1290  -26.9870   11.8400

 General Reference for PM6:
 "Optimization of Parameters for Semiempirical Methods V: Modification of NDDO Approximations
 and Application to 70 Elements", J. J. P. Stewart, J. Mol. Mod., 13, 1173-1213 (2007)
 URL: http://www.springerlink.com/content/ar33482301010477/fulltext.pdf

           Empirical Formula: C23 H26 O5  =    54 atoms



      MOLECULAR POINT GROUP   :   C1  
 
   NUMBER AND TYPES OF BONDS IDENTIFIED
 
         SIGMA BONDS               57
         LONE PAIRS                10
         NORMAL PI BONDS            6
         AROMATIC RING PI BONDS     1
 

                  Ramachandran Angles
              Residue    phi    psi  omega

  
  SCF CRITERION =    0.1000E-02

 -------------------------------------------------------------------------------
 PM6 T=31411169 DUMP=4320 XYZ EPS=78.40 RSOLV=1.30 MULLIK LBFGS MOZYME PDBOUT +
 CHARGE=0 RELSCF=0.1 LET DDMIN=0.0 GNORM=0.15 1SCF
 SJ000002349-1_T001S001I001C05_002: Geometry optimization step



     1SCF WAS SPECIFIED, SO BFGS WAS NOT USED                 
     SCF FIELD WAS ACHIEVED                                   


                               PM6     CALCULATION
                                                       MOPAC2009 (Version: 9.015L)
                                                       Thu Sep  8 03:01:24 2011




          FINAL HEAT OF FORMATION =       -182.00101 KCAL =    -761.49225 KJ
          VAN DER WAALS AREA      =        350.57 SQUARE ANGSTROMS


          TOTAL ENERGY            =      -4647.74554 EV
          ELECTRONIC ENERGY       =     -42278.00734 EV
          CORE-CORE REPULSION     =      37630.26181 EV
          DIELECTRIC ENERGY       =         -1.38343 EV
          COSMO AREA              =        350.57 SQUARE ANGSTROMS
          COSMO VOLUME            =        443.79 CUBIC ANGSTROMS

          NO. OF FILLED LEVELS    =         74
          MOLECULAR WEIGHT        =        382.455

          MOLECULAR DIMENSIONS (Angstroms)

            Atom       Atom       Distance
            H    41    H    52    10.39380
            H    38    H    42     9.67707
            H    50    H    36     6.66216


          SCF CALCULATIONS        =          2
          COMPUTATION TIME        =          0.552 SECONDS




   ATOM           CHEMICAL             X               Y              Z
  NUMBER           SYMBOL         (ANGSTROMS)     (ANGSTROMS)    (ANGSTROMS)
 
     1       C(     1  C     )   -6.6080000  *  -21.585000  *    9.581000  *
     2       C(     2  C     )   -6.1430000  *  -21.884000  *   11.007000  *
     3       C(     3  C     )   -6.2220000  *  -23.368000  *   11.277000  *
     4       C(     4  C     )   -7.1720000  *  -24.111000  *   10.678000  *
     5       C(     5  C     )   -7.2460000  *  -25.594000  *   10.943000  *
     6       C(     6  C     )   -5.9400000  *  -26.100000  *   11.505000  *
     7       C(     7  C     )   -5.0640000  *  -25.235000  *   12.051000  *
     8       C(     8  C     )   -3.7520000  *  -25.738000  *   12.606000  *
     9       C(     9  C     )   -3.2820000  *  -26.958000  *   11.813000  *
    10       C(    10  C     )   -4.3640000  *  -28.028000  *   11.978000  *
    11       C(    11  C     )   -5.6600000  *  -27.477000  *   11.447000  *
    12       O(    12  O     )   -6.4760000  *  -28.234000  *   10.962000  *
    13       O(    13  O     )   -5.3370000  *  -23.922000  *   12.120000  *
    14       C(    14  C     )   -8.1040000  *  -23.527000  *    9.801000  *
    15       O(    15  O     )   -8.9570000  *  -24.222000  *    9.286000  *
    16       C(    16  C     )   -8.0620000  *  -22.056000  *    9.490000  *
    17       H(    17  C     )   -5.1120000  *  -21.550000  *   11.128000  *
    18       H(    18  C     )   -6.7800000  *  -21.353000  *   11.714000  *
    19       H(    19  C     )   -8.0450000  *  -25.793000  *   11.657000  *
    20       H(    20  C     )   -3.0030000  *  -24.950000  *   12.534000  *
    21       H(    21  C     )   -3.8850000  *  -26.015000  *   13.652000  *
    22       H(    22  C     )   -4.0870000  *  -28.920000  *   11.417000  *
    23       H(    23  C     )   -4.4750000  *  -28.277000  *   13.034000  *
    24       H(    24  C     )   -8.6700000  *  -21.511000  *   10.210000  *
    25       H(    25  C     )   -8.4400000  *  -21.882000  *    8.483000  *
    26       C(    26  C     )   -7.5440000  *  -26.315000  *    9.653000  *
    27       C(    27  C     )   -8.6980000  *  -27.075000  *    9.535000  *
    28       C(    28  C     )   -8.9710000  *  -27.737000  *    8.348000  *
    29       C(    29  C     )   -8.0910000  *  -27.639000  *    7.283000  *
    30       H(    30  C     )   -9.8700000  *  -28.330000  *    8.253000  *
    31       C(    31  C     )   -6.9360000  *  -26.878000  *    7.407000  *
    32       C(    32  C     )   -6.6690000  *  -26.215000  *    8.588000  *
    33       H(    33  C     )   -6.2490000  *  -26.802000  *    6.577000  *
    34       H(    34  C     )   -5.7710000  *  -25.622000  *    8.682000  *
    35       O(    35  O     )   -9.5620000  *  -27.169000  *   10.580000  *
    36       H(    36  O     )  -10.0960000  *  -27.976000  *   10.578000  *
    37       O(    37  O     )   -8.3550000  *  -28.287000  *    6.119000  *
    38       H(    38  O     )   -7.8750000  *  -29.120000  *    6.014000  *
    39       C(    39  C     )   -6.5260000  *  -20.082000  *    9.307000  *
    40       H(    40  C     )   -5.6040000  *  -19.861000  *    8.768000  *
    41       H(    41  C     )   -7.3810000  *  -19.775000  *    8.705000  *
    42       H(    42  C     )   -6.5330000  *  -19.540000  *   10.252000  *
    43       C(    43  C     )   -5.7440000  *  -22.349000  *    8.577000  *
    44       H(    44  C     )   -4.9500000  *  -22.876000  *    9.107000  *
    45       H(    45  C     )   -6.3610000  *  -23.068000  *    8.039000  *
    46       H(    46  C     )   -5.3030000  *  -21.648000  *    7.868000  *
    47       C(    47  C     )   -3.1260000  *  -26.595000  *   10.335000  *
    48       H(    48  C     )   -3.7890000  *  -27.219000  *    9.736000  *
    49       H(    49  C     )   -3.3850000  *  -25.547000  *   10.189000  *
    50       H(    50  C     )   -2.0940000  *  -26.762000  *   10.027000  *
    51       C(    51  C     )   -1.9510000  *  -27.465000  *   12.371000  *
    52       H(    52  C     )   -1.8870000  *  -27.225000  *   13.432000  *
    53       H(    53  C     )   -1.8900000  *  -28.545000  *   12.238000  *
    54       H(    54  C     )   -1.1290000  *  -26.987000  *   11.840000  *

           Empirical Formula: C23 H26 O5  =    54 atoms



              NET ATOMIC CHARGES AND DIPOLE CONTRIBUTIONS

  ATOM NO.   TYPE          CHARGE      No. of ELECS.   s-Pop       p-Pop       
    1          C           0.288294        3.7117     1.06303     2.64867
    2          C          -0.421570        4.4216     1.10754     3.31403
    3          C           0.433221        3.5668     1.09988     2.46690
    4          C          -0.486627        4.4866     1.11142     3.37520
    5          C           0.128708        3.8713     1.05073     2.82056
    6          C          -0.486356        4.4864     1.11165     3.37471
    7          C           0.432954        3.5670     1.10030     2.46675
    8          C          -0.421827        4.4218     1.10737     3.31446
    9          C           0.288161        3.7118     1.06298     2.64886
   10          C          -0.533944        4.5339     1.11877     3.41518
   11          C           0.664074        3.3359     1.07322     2.26270
   12          O          -0.617295        6.6173     1.84511     4.77218
   13          O          -0.347232        6.3472     1.78197     4.56526
   14          C           0.664149        3.3359     1.07343     2.26242
   15          O          -0.618686        6.6187     1.84558     4.77311
   16          C          -0.534139        4.5341     1.11857     3.41557
   17          H           0.198268        0.8017     0.80173
   18          H           0.204942        0.7951     0.79506
   19          H           0.145276        0.8547     0.85472
   20          H           0.199094        0.8009     0.80091
   21          H           0.205319        0.7947     0.79468
   22          H           0.200051        0.7999     0.79995
   23          H           0.206811        0.7932     0.79319
   24          H           0.206698        0.7933     0.79330
   25          H           0.201072        0.7989     0.79893
   26          C          -0.137430        4.1374     1.08699     3.05044
   27          C           0.416884        3.5831     1.06019     2.52292
   28          C          -0.499240        4.4992     1.11108     3.38816
   29          C           0.395870        3.6041     1.05471     2.54942
   30          H           0.200146        0.7999     0.79985
   31          C          -0.388644        4.3886     1.10510     3.28354
   32          C          -0.008652        4.0087     1.09467     2.91398
   33          H           0.183078        0.8169     0.81692
   34          H           0.152538        0.8475     0.84746
   35          O          -0.524179        6.5242     1.78034     4.74384
   36          H           0.362088        0.6379     0.63791
   37          O          -0.579944        6.5799     1.77136     4.80859
   38          H           0.376031        0.6240     0.62397
   39          C          -0.547790        4.5478     1.09600     3.45179
   40          H           0.173541        0.8265     0.82646
   41          H           0.173490        0.8265     0.82651
   42          H           0.170803        0.8292     0.82920
   43          C          -0.557293        4.5573     1.09757     3.45972
   44          H           0.167479        0.8325     0.83252
   45          H           0.169322        0.8307     0.83068
   46          H           0.176502        0.8235     0.82350
   47          C          -0.557553        4.5576     1.09739     3.46016
   48          H           0.169799        0.8302     0.83020
   49          H           0.167093        0.8329     0.83291
   50          H           0.176260        0.8237     0.82374
   51          C          -0.546953        4.5470     1.09554     3.45141
   52          H           0.170223        0.8298     0.82978
   53          H           0.173969        0.8260     0.82603
   54          H           0.173145        0.8269     0.82685


          CARTESIAN COORDINATES 

    NO.       ATOM               X         Y         Z

     1         C                 -6.6080  -21.5850    9.5810
     2         C                 -6.1430  -21.8840   11.0070
     3         C                 -6.2220  -23.3680   11.2770
     4         C                 -7.1720  -24.1110   10.6780
     5         C                 -7.2460  -25.5940   10.9430
     6         C                 -5.9400  -26.1000   11.5050
     7         C                 -5.0640  -25.2350   12.0510
     8         C                 -3.7520  -25.7380   12.6060
     9         C                 -3.2820  -26.9580   11.8130
    10         C                 -4.3640  -28.0280   11.9780
    11         C                 -5.6600  -27.4770   11.4470
    12         O                 -6.4760  -28.2340   10.9620
    13         O                 -5.3370  -23.9220   12.1200
    14         C                 -8.1040  -23.5270    9.8010
    15         O                 -8.9570  -24.2220    9.2860
    16         C                 -8.0620  -22.0560    9.4900
    17         H                 -5.1120  -21.5500   11.1280
    18         H                 -6.7800  -21.3530   11.7140
    19         H                 -8.0450  -25.7930   11.6570
    20         H                 -3.0030  -24.9500   12.5340
    21         H                 -3.8850  -26.0150   13.6520
    22         H                 -4.0870  -28.9200   11.4170
    23         H                 -4.4750  -28.2770   13.0340
    24         H                 -8.6700  -21.5110   10.2100
    25         H                 -8.4400  -21.8820    8.4830
    26         C                 -7.5440  -26.3150    9.6530
    27         C                 -8.6980  -27.0750    9.5350
    28         C                 -8.9710  -27.7370    8.3480
    29         C                 -8.0910  -27.6390    7.2830
    30         H                 -9.8700  -28.3300    8.2530
    31         C                 -6.9360  -26.8780    7.4070
    32         C                 -6.6690  -26.2150    8.5880
    33         H                 -6.2490  -26.8020    6.5770
    34         H                 -5.7710  -25.6220    8.6820
    35         O                 -9.5620  -27.1690   10.5800
    36         H                -10.0960  -27.9760   10.5780
    37         O                 -8.3550  -28.2870    6.1190
    38         H                 -7.8750  -29.1200    6.0140
    39         C                 -6.5260  -20.0820    9.3070
    40         H                 -5.6040  -19.8610    8.7680
    41         H                 -7.3810  -19.7750    8.7050
    42         H                 -6.5330  -19.5400   10.2520
    43         C                 -5.7440  -22.3490    8.5770
    44         H                 -4.9500  -22.8760    9.1070
    45         H                 -6.3610  -23.0680    8.0390
    46         H                 -5.3030  -21.6480    7.8680
    47         C                 -3.1260  -26.5950   10.3350
    48         H                 -3.7890  -27.2190    9.7360
    49         H                 -3.3850  -25.5470   10.1890
    50         H                 -2.0940  -26.7620   10.0270
    51         C                 -1.9510  -27.4650   12.3710
    52         H                 -1.8870  -27.2250   13.4320
    53         H                 -1.8900  -28.5450   12.2380
    54         H                 -1.1290  -26.9870   11.8400


          ATOMIC ORBITAL ELECTRON POPULATIONS

   1.06303   0.87139   0.91418   0.86310   1.10754   1.20466   0.98865   1.12072
   1.09988   0.79081   0.90793   0.76816   1.11142   1.12334   1.06599   1.18587
   1.05073   0.96390   0.87342   0.98325   1.11165   1.09474   1.06081   1.21915
   1.10030   0.90276   0.74320   0.82080   1.10737   1.03479   1.12779   1.15188
   1.06298   0.89484   0.85760   0.89642   1.11877   1.07325   1.14530   1.19663
   1.07322   0.79262   0.83244   0.63764   1.84511   1.58437   1.68292   1.50489
   1.78197   1.61886   1.36246   1.58394   1.07343   0.73375   0.83779   0.69089
   1.84558   1.48824   1.70226   1.58262   1.11857   1.12119   1.08591   1.20847
   0.80173   0.79506   0.85472   0.80091   0.79468   0.79995   0.79319   0.79330
   0.79893   1.08699   0.98809   1.05714   1.00521   1.06019   0.83690   0.88710
   0.79892   1.11108   1.15630   1.19655   1.03531   1.05471   0.90684   0.86809
   0.77450   0.79985   1.10510   1.08171   1.11504   1.08678   1.09467   1.01799
   0.95626   0.93973   0.81692   0.84746   1.78034   1.59510   1.57280   1.57594
   0.63791   1.77136   1.78930   1.51190   1.50738   0.62397   1.09600   1.19590
   1.06576   1.19013   0.82646   0.82651   0.82920   1.09757   1.15190   1.16560
   1.14222   0.83252   0.83068   0.82350   1.09739   1.19918   1.18263   1.07835
   0.83020   0.83291   0.82374   1.09554   1.09228   1.18207   1.17706   0.82978
   0.82603   0.82685

           MULLIKEN POPULATION ANALYSIS



        MULLIKEN POPULATIONS AND CHARGES

      NO.  ATOM   POPULATION      CHARGE
        1    C     3.682492      0.317508
        2    C     4.540576     -0.540576
        3    C     3.543726      0.456274
        4    C     4.536823     -0.536823
        5    C     3.869483      0.130517
        6    C     4.536591     -0.536591
        7    C     3.544142      0.455858
        8    C     4.541105     -0.541105
        9    C     3.682678      0.317322
       10    C     4.665185     -0.665185
       11    C     3.282843      0.717157
       12    O     6.641961     -0.641961
       13    O     6.394216     -0.394216
       14    C     3.282851      0.717149
       15    O     6.643288     -0.643288
       16    C     4.665901     -0.665901
       17    H     0.744758      0.255242
       18    H     0.738293      0.261707
       19    H     0.807062      0.192938
       20    H     0.743531      0.256469
       21    H     0.737914      0.262086
       22    H     0.743148      0.256852
       23    H     0.736853      0.263147
       24    H     0.736692      0.263308
       25    H     0.741884      0.258116
       26    C     4.149786     -0.149786
       27    C     3.557199      0.442801
       28    C     4.579542     -0.579542
       29    C     3.576563      0.423437
       30    H     0.737748      0.262252
       31    C     4.458203     -0.458203
       32    C     4.041137     -0.041137
       33    H     0.758887      0.241113
       34    H     0.798484      0.201516
       35    O     6.575939     -0.575939
       36    H     0.604025      0.395975
       37    O     6.631952     -0.631952
       38    H     0.589060      0.410940
       39    C     4.694526     -0.694526
       40    H     0.778400      0.221600
       41    H     0.778098      0.221902
       42    H     0.781158      0.218842
       43    C     4.702790     -0.702790
       44    H     0.785832      0.214168
       45    H     0.783330      0.216670
       46    H     0.774600      0.225400
       47    C     4.703249     -0.703249
       48    H     0.782792      0.217208
       49    H     0.786162      0.213838
       50    H     0.774741      0.225259
       51    C     4.694036     -0.694036
       52    H     0.781787      0.218213
       53    H     0.777442      0.222558
       54    H     0.778532      0.221468



 TOTAL CPU TIME:             0.59 SECONDS

 == MOPAC DONE ==
 *******************************************************************************
 ** Site#:  958            For non-commercial use only         Version 9.015L **
 *******************************************************************************
 ** Cite this work as: MOPAC2009, James J. P. Stewart, Stewart Computational  **
 ** Chemistry, Version 9.015L web: HTTP://OpenMOPAC.net                       **
 *******************************************************************************
 **                                                                           **
 **                                MOPAC2009                                  **
 **                                                                           **
 *******************************************************************************

                            PM6 CALCULATION RESULTS


 *******************************************************************************
 *  CALCULATION DONE:                                Thu Sep  8 03:01:24 2011  *
 *  PM6      - The PM6 Hamiltonian to be used
 *  GEO-OK   - OVERRIDE INTERATOMIC DISTANCE CHECK
 *  MOZYME   - USE LOCALIZED M.O.s IN SOLVING THE SCF EQUATIONS
 *
 *
 *
 *                 CHARGE ON SYSTEM =     0
 *
 *
 *
 *  EPS= 78.400
 *  RSOLV=  1.300
 *  OLDGEO   - PREVIOUS GEOMETRY TO BE USED
 *  T=       - A TIME OF 172800.0 SECONDS REQUESTED
 *  DUMP=N   - RESTART FILE WRITTEN EVERY  4320.000 SECONDS
 *  RELSCF   - DEFAULT SCF CRITERION MULTIPLIED BY   0.100    
 *             (DEFAULT SCFCRT= 0.00010)
 *  THERMO   - THERMODYNAMIC QUANTITIES TO BE CALCULATED
 *******************************************************************************
 PM6 DUMP=4320 MOZYME RELSCF=0.1 THERMO EPS=78.40 RSOLV=1.30 +
 OLDGEO GEO-OK CHARGE=0
 SJ000002349-1_T001S001I001C05_002: Free energy calculation

   ATOM           CHEMICAL             X               Y              Z
  NUMBER           SYMBOL         (ANGSTROMS)     (ANGSTROMS)    (ANGSTROMS)
 
     1       C(     1  C     )   -6.6080000  *  -21.585000  *    9.581000  *
     2       C(     2  C     )   -6.1430000  *  -21.884000  *   11.007000  *
     3       C(     3  C     )   -6.2220000  *  -23.368000  *   11.277000  *
     4       C(     4  C     )   -7.1720000  *  -24.111000  *   10.678000  *
     5       C(     5  C     )   -7.2460000  *  -25.594000  *   10.943000  *
     6       C(     6  C     )   -5.9400000  *  -26.100000  *   11.505000  *
     7       C(     7  C     )   -5.0640000  *  -25.235000  *   12.051000  *
     8       C(     8  C     )   -3.7520000  *  -25.738000  *   12.606000  *
     9       C(     9  C     )   -3.2820000  *  -26.958000  *   11.813000  *
    10       C(    10  C     )   -4.3640000  *  -28.028000  *   11.978000  *
    11       C(    11  C     )   -5.6600000  *  -27.477000  *   11.447000  *
    12       O(    12  O     )   -6.4760000  *  -28.234000  *   10.962000  *
    13       O(    13  O     )   -5.3370000  *  -23.922000  *   12.120000  *
    14       C(    14  C     )   -8.1040000  *  -23.527000  *    9.801000  *
    15       O(    15  O     )   -8.9570000  *  -24.222000  *    9.286000  *
    16       C(    16  C     )   -8.0620000  *  -22.056000  *    9.490000  *
    17       H(    17  C     )   -5.1120000  *  -21.550000  *   11.128000  *
    18       H(    18  C     )   -6.7800000  *  -21.353000  *   11.714000  *
    19       H(    19  C     )   -8.0450000  *  -25.793000  *   11.657000  *
    20       H(    20  C     )   -3.0030000  *  -24.950000  *   12.534000  *
    21       H(    21  C     )   -3.8850000  *  -26.015000  *   13.652000  *
    22       H(    22  C     )   -4.0870000  *  -28.920000  *   11.417000  *
    23       H(    23  C     )   -4.4750000  *  -28.277000  *   13.034000  *
    24       H(    24  C     )   -8.6700000  *  -21.511000  *   10.210000  *
    25       H(    25  C     )   -8.4400000  *  -21.882000  *    8.483000  *
    26       C(    26  C     )   -7.5440000  *  -26.315000  *    9.653000  *
    27       C(    27  C     )   -8.6980000  *  -27.075000  *    9.535000  *
    28       C(    28  C     )   -8.9710000  *  -27.737000  *    8.348000  *
    29       C(    29  C     )   -8.0910000  *  -27.639000  *    7.283000  *
    30       H(    30  C     )   -9.8700000  *  -28.330000  *    8.253000  *
    31       C(    31  C     )   -6.9360000  *  -26.878000  *    7.407000  *
    32       C(    32  C     )   -6.6690000  *  -26.215000  *    8.588000  *
    33       H(    33  C     )   -6.2490000  *  -26.802000  *    6.577000  *
    34       H(    34  C     )   -5.7710000  *  -25.622000  *    8.682000  *
    35       O(    35  O     )   -9.5620000  *  -27.169000  *   10.580000  *
    36       H(    36  O     )  -10.0960000  *  -27.976000  *   10.578000  *
    37       O(    37  O     )   -8.3550000  *  -28.287000  *    6.119000  *
    38       H(    38  O     )   -7.8750000  *  -29.120000  *    6.014000  *
    39       C(    39  C     )   -6.5260000  *  -20.082000  *    9.307000  *
    40       H(    40  C     )   -5.6040000  *  -19.861000  *    8.768000  *
    41       H(    41  C     )   -7.3810000  *  -19.775000  *    8.705000  *
    42       H(    42  C     )   -6.5330000  *  -19.540000  *   10.252000  *
    43       C(    43  C     )   -5.7440000  *  -22.349000  *    8.577000  *
    44       H(    44  C     )   -4.9500000  *  -22.876000  *    9.107000  *
    45       H(    45  C     )   -6.3610000  *  -23.068000  *    8.039000  *
    46       H(    46  C     )   -5.3030000  *  -21.648000  *    7.868000  *
    47       C(    47  C     )   -3.1260000  *  -26.595000  *   10.335000  *
    48       H(    48  C     )   -3.7890000  *  -27.219000  *    9.736000  *
    49       H(    49  C     )   -3.3850000  *  -25.547000  *   10.189000  *
    50       H(    50  C     )   -2.0940000  *  -26.762000  *   10.027000  *
    51       C(    51  C     )   -1.9510000  *  -27.465000  *   12.371000  *
    52       H(    52  C     )   -1.8870000  *  -27.225000  *   13.432000  *
    53       H(    53  C     )   -1.8900000  *  -28.545000  *   12.238000  *
    54       H(    54  C     )   -1.1290000  *  -26.987000  *   11.840000  *
 


          CARTESIAN COORDINATES 

    NO.       ATOM         X         Y         Z

     1         C       -6.6080  -21.5850    9.5810
     2         C       -6.1430  -21.8840   11.0070
     3         C       -6.2220  -23.3680   11.2770
     4         C       -7.1720  -24.1110   10.6780
     5         C       -7.2460  -25.5940   10.9430
     6         C       -5.9400  -26.1000   11.5050
     7         C       -5.0640  -25.2350   12.0510
     8         C       -3.7520  -25.7380   12.6060
     9         C       -3.2820  -26.9580   11.8130
    10         C       -4.3640  -28.0280   11.9780
    11         C       -5.6600  -27.4770   11.4470
    12         O       -6.4760  -28.2340   10.9620
    13         O       -5.3370  -23.9220   12.1200
    14         C       -8.1040  -23.5270    9.8010
    15         O       -8.9570  -24.2220    9.2860
    16         C       -8.0620  -22.0560    9.4900
    17         H       -5.1120  -21.5500   11.1280
    18         H       -6.7800  -21.3530   11.7140
    19         H       -8.0450  -25.7930   11.6570
    20         H       -3.0030  -24.9500   12.5340
    21         H       -3.8850  -26.0150   13.6520
    22         H       -4.0870  -28.9200   11.4170
    23         H       -4.4750  -28.2770   13.0340
    24         H       -8.6700  -21.5110   10.2100
    25         H       -8.4400  -21.8820    8.4830
    26         C       -7.5440  -26.3150    9.6530
    27         C       -8.6980  -27.0750    9.5350
    28         C       -8.9710  -27.7370    8.3480
    29         C       -8.0910  -27.6390    7.2830
    30         H       -9.8700  -28.3300    8.2530
    31         C       -6.9360  -26.8780    7.4070
    32         C       -6.6690  -26.2150    8.5880
    33         H       -6.2490  -26.8020    6.5770
    34         H       -5.7710  -25.6220    8.6820
    35         O       -9.5620  -27.1690   10.5800
    36         H      -10.0960  -27.9760   10.5780
    37         O       -8.3550  -28.2870    6.1190
    38         H       -7.8750  -29.1200    6.0140
    39         C       -6.5260  -20.0820    9.3070
    40         H       -5.6040  -19.8610    8.7680
    41         H       -7.3810  -19.7750    8.7050
    42         H       -6.5330  -19.5400   10.2520
    43         C       -5.7440  -22.3490    8.5770
    44         H       -4.9500  -22.8760    9.1070
    45         H       -6.3610  -23.0680    8.0390
    46         H       -5.3030  -21.6480    7.8680
    47         C       -3.1260  -26.5950   10.3350
    48         H       -3.7890  -27.2190    9.7360
    49         H       -3.3850  -25.5470   10.1890
    50         H       -2.0940  -26.7620   10.0270
    51         C       -1.9510  -27.4650   12.3710
    52         H       -1.8870  -27.2250   13.4320
    53         H       -1.8900  -28.5450   12.2380
    54         H       -1.1290  -26.9870   11.8400

 General Reference for PM6:
 "Optimization of Parameters for Semiempirical Methods V: Modification of NDDO Approximations
 and Application to 70 Elements", J. J. P. Stewart, J. Mol. Mod., 13, 1173-1213 (2007)
 URL: http://www.springerlink.com/content/ar33482301010477/fulltext.pdf

           Empirical Formula: C23 H26 O5  =    54 atoms



      MOLECULAR POINT GROUP   :   C1  
 
   NUMBER AND TYPES OF BONDS IDENTIFIED
 
         SIGMA BONDS               57
         LONE PAIRS                10
         NORMAL PI BONDS            6
         AROMATIC RING PI BONDS     1
 
  SCF CRITERION =    0.1000E-02


          HEAT OF FORMATION =    -182.001032 KCALS/MOLE


          INTERNAL COORDINATE DERIVATIVES

   NUMBER  ATOM       BOND         ANGLE      DIHEDRAL

     1       C
     2       C      9.998512
     3       C      8.290112    -0.991522
     4       C    -29.350442   -19.792572   -15.087915
     5       C     38.831444    19.801656    25.500080
     6       C    -49.942544   -13.379090   -19.986057
     7       C      8.702743    -2.718888    -9.701764
     8       C     10.534171    50.483873    23.272935
     9       C    -21.008350   -42.172693   -16.914981
    10       C     17.107294    28.584226    18.878544
    11       C     -3.281346    -6.143182   -11.432922
    12       O      9.502661     8.592780     3.502666
    13       O    -11.837508   -49.847989    -8.079371
    14       C      5.074918   -37.505573     8.126395
    15       O    -39.617457    57.033003   -29.450234
    16       C     41.185589     4.611226    30.437779
    17       H     26.715328   -14.025123    23.341396
    18       H     -6.154274    -8.567856    -9.257341
    19       H     -8.775060    11.763455    -8.221090
    20       H    -10.498812     9.607825     9.272659
    21       H    -10.309374    -2.698076    18.365170
    22       H     -6.934326    14.084932    -7.276522
    23       H    -15.101387     4.736841     5.601731
    24       H     -2.633850   -14.069209    -3.566738
    25       H    -11.554133    -7.979105     4.370886
    26       C      0.852935     6.120656    14.541664
    27       C     12.883016     1.770907     7.333433
    28       C    -20.111346    20.853202     2.185910
    29       C      8.184749   -13.982407     5.128182
    30       H     13.246499   -24.346270    18.636382
    31       C    -19.539285     8.305348    -4.430009
    32       C      1.876311    -5.636240     4.267354
    33       H     18.650949    -1.871966   -20.640933
    34       H      1.691672     6.278074    -8.666535
    35       O      4.046422    -0.498933    -6.155379
    36       H     -2.113814     5.825085    -5.960398
    37       O    -14.439877    17.332649     5.319961
    38       H      3.337953   -13.068611     6.949093
    39       C     26.945084    -5.886880     9.708587
    40       H     -3.380481    -8.779931    -9.108327
    41       H     -5.915598    -5.344360     2.036377
    42       H      2.281190     8.408880    -1.701660
    43       C      4.687022     7.376395     0.234961
    44       H      2.230105     9.694807     1.677662
    45       H     -0.399971     0.526576     1.037749
    46       H      4.064566    -4.037760    -9.616311
    47       C      5.228535    -5.381146    -8.913859
    48       H      4.265430    -3.430841    -7.806573
    49       H     -1.917026    -0.959711     0.385504
    50       H     10.156333    -0.039494    -5.225731
    51       C     10.015168     2.031157    -5.779409
    52       H      8.220355     0.871195    -5.209081
    53       H      1.482895     2.224694     8.476582
    54       H     -7.853069    -1.433341    -5.359164


          GRADIENT NORM = 196.53017



 ** GRADIENT IS TOO LARGE TO ALLOW FORCE MATRIX TO BE CALCULATED, (LIMIT=10) **



 EITHER ADD 'LET' OR REDUCE GRADIENT
 USING 'TS' OR OTHER GEOMETRY OPTIMIZER



 TOTAL CPU TIME:             1.31 SECONDS

 == MOPAC DONE ==
