 *******************************************************************************
 ** Site#:  958            For non-commercial use only         Version 9.015L **
 *******************************************************************************
 ** Cite this work as: MOPAC2009, James J. P. Stewart, Stewart Computational  **
 ** Chemistry, Version 9.015L web: HTTP://OpenMOPAC.net                       **
 *******************************************************************************
 **                                                                           **
 **                                MOPAC2009                                  **
 **                                                                           **
 *******************************************************************************

                            PM6 CALCULATION RESULTS


 *******************************************************************************
 *  CALCULATION DONE:                                Tue Sep  6 17:23:19 2011  *
 *  PM6      - The PM6 Hamiltonian to be used
 *  PDBOUT   - PRINT GEOMETY IN PDB FORMAT
 *  MOZYME   - USE LOCALIZED M.O.s IN SOLVING THE SCF EQUATIONS
 *
 *
 *
 *                 CHARGE ON SYSTEM =     1
 *
 *
 *
 *  EPS= 78.400
 *  RSOLV=  1.300
 *  LET      - OVERRIDE SOME SAFETY CHECKS
 *  XYZ      - CARTESIAN COORDINATE SYSTEM TO BE USED
 *  LBFGS    - USE THE LBFGS GEOMETRY OPTIMIZER
 *  1SCF     - DO 1 SCF AND THEN STOP 
 *  T=       - A TIME OF  0.3E+08 SECONDS REQUESTED
 *  DUMP=N   - RESTART FILE WRITTEN EVERY  4320.000 SECONDS
 *  DDMIN=   - MINIMUM TRUST RADIUS  0.000 ANG/RAD
 *  GNORM=   - EXIT WHEN GRADIENT NORM DROPS BELOW .150    
 *  RELSCF   - DEFAULT SCF CRITERION MULTIPLIED BY   0.100    
 *             (DEFAULT SCFCRT= 0.00010)
 *  MULLIK   - THE MULLIKEN ANALYSIS TO BE PERFORMED
 *******************************************************************************
 PM6 T=31532253 DUMP=4320 XYZ EPS=78.40 RSOLV=1.30 MULLIK LBFGS MOZYME PDBOUT +
 CHARGE=1 RELSCF=0.1 LET DDMIN=0.0 GNORM=0.15 1SCF
 SJ000001185-1_T001S001I002C02_001: Geometry optimization step

   ATOM   CHEMICAL          X               Y              Z
  NUMBER   SYMBOL      (ANGSTROMS)     (ANGSTROMS)    (ANGSTROMS)
 
     1       N          2.7430000  *  -26.731000  *   10.567000  *
     2       C          1.7460000  *  -26.457000  *    9.705000  *
     3       O          1.9150000  *  -26.626000  *    8.512000  *
     4       C          0.4540000  *  -25.956000  *   10.196000  *
     5       C         -0.5990000  *  -25.661000  *    9.344000  *
     6       C         -1.8020000  *  -25.189000  *    9.857000  *
     7       C         -1.9840000  *  -25.003000  *   11.196000  *
     8       C          0.2840000  *  -25.770000  *   11.587000  *
     9       C         -0.9420000  *  -25.291000  *   12.094000  *
    10       C         -1.0800000  *  -25.115000  *   13.483000  *
    11       C         -0.0390000  *  -25.408000  *   14.316000  *
    12       C          1.1740000  *  -25.881000  *   13.828000  *
    13       C          1.3510000  *  -26.066000  *   12.464000  *
    14       C          2.6110000  *  -26.569000  *   11.898000  *
    15       O          3.5430000  *  -26.831000  *   12.634000  *
    16       H         -0.4840000  *  -25.798000  *    8.278000  *
    17       H         -2.6120000  *  -24.965000  *    9.178000  *
    18       H         -2.0110000  *  -24.750000  *   13.891000  *
    19       H         -0.1600000  *  -25.268000  *   15.380000  *
    20       H          1.9800000  *  -26.103000  *   14.512000  *
    21       C          3.9600000  *  -27.208000  *   10.063000  *
    22       C          4.1450000  *  -28.569000  *    9.868000  *
    23       C          5.3510000  *  -29.036000  *    9.369000  *
    24       H          3.3520000  *  -29.262000  *   10.104000  *
    25       O          5.5360000  *  -30.369000  *    9.178000  *
    26       C          6.3710000  *  -28.144000  *    9.072000  *
    27       C          6.1820000  *  -26.788000  *    9.262000  *
    28       H          7.3100000  *  -28.508000  *    8.683000  *
    29       C          4.9820000  *  -26.319000  *    9.759000  *
    30       H          6.9760000  *  -26.095000  *    9.025000  *
    31       H          4.8390000  *  -25.258000  *    9.911000  *
    32       N         -3.2800000  *  -24.499000  *   11.704000  *
    33       O         -4.0320000  *  -25.248000  *   12.300000  *
    34       O         -3.5940000  *  -23.337000  *   11.523000  *
 


          CARTESIAN COORDINATES 

    NO.       ATOM         X         Y         Z

     1         N        2.7430  -26.7310   10.5670
     2         C        1.7460  -26.4570    9.7050
     3         O        1.9150  -26.6260    8.5120
     4         C        0.4540  -25.9560   10.1960
     5         C       -0.5990  -25.6610    9.3440
     6         C       -1.8020  -25.1890    9.8570
     7         C       -1.9840  -25.0030   11.1960
     8         C        0.2840  -25.7700   11.5870
     9         C       -0.9420  -25.2910   12.0940
    10         C       -1.0800  -25.1150   13.4830
    11         C       -0.0390  -25.4080   14.3160
    12         C        1.1740  -25.8810   13.8280
    13         C        1.3510  -26.0660   12.4640
    14         C        2.6110  -26.5690   11.8980
    15         O        3.5430  -26.8310   12.6340
    16         H       -0.4840  -25.7980    8.2780
    17         H       -2.6120  -24.9650    9.1780
    18         H       -2.0110  -24.7500   13.8910
    19         H       -0.1600  -25.2680   15.3800
    20         H        1.9800  -26.1030   14.5120
    21         C        3.9600  -27.2080   10.0630
    22         C        4.1450  -28.5690    9.8680
    23         C        5.3510  -29.0360    9.3690
    24         H        3.3520  -29.2620   10.1040
    25         O        5.5360  -30.3690    9.1780
    26         C        6.3710  -28.1440    9.0720
    27         C        6.1820  -26.7880    9.2620
    28         H        7.3100  -28.5080    8.6830
    29         C        4.9820  -26.3190    9.7590
    30         H        6.9760  -26.0950    9.0250
    31         H        4.8390  -25.2580    9.9110
    32         N       -3.2800  -24.4990   11.7040
    33         O       -4.0320  -25.2480   12.3000
    34         O       -3.5940  -23.3370   11.5230

 General Reference for PM6:
 "Optimization of Parameters for Semiempirical Methods V: Modification of NDDO Approximations
 and Application to 70 Elements", J. J. P. Stewart, J. Mol. Mod., 13, 1173-1213 (2007)
 URL: http://www.springerlink.com/content/ar33482301010477/fulltext.pdf

           Empirical Formula: C18 H9 N2 O5  =    34 atoms



      MOLECULAR POINT GROUP   :   C1  
 
   NUMBER AND TYPES OF BONDS IDENTIFIED
 
         SIGMA BONDS               38
         LONE PAIRS                12
         NORMAL PI BONDS            5
         AROMATIC RING PI BONDS     5
         CATIONS                    1
 

                  Ramachandran Angles
              Residue    phi    psi  omega

  

 COMPUTED CHARGE ON SYSTEM:   1
  SCF CRITERION =    0.1000E-02

 -------------------------------------------------------------------------------
 PM6 T=31532253 DUMP=4320 XYZ EPS=78.40 RSOLV=1.30 MULLIK LBFGS MOZYME PDBOUT +
 CHARGE=1 RELSCF=0.1 LET DDMIN=0.0 GNORM=0.15 1SCF
 SJ000001185-1_T001S001I002C02_001: Geometry optimization step



     1SCF WAS SPECIFIED, SO BFGS WAS NOT USED                 
     SCF FIELD WAS ACHIEVED                                   


                               PM6     CALCULATION
                                                       MOPAC2009 (Version: 9.015L)
                                                       Tue Sep  6 17:23:20 2011




          FINAL HEAT OF FORMATION =        176.11809 KCAL =     736.87809 KJ
          VAN DER WAALS AREA      =        311.63 SQUARE ANGSTROMS


          TOTAL ENERGY            =      -3942.43769 EV
          ELECTRONIC ENERGY       =     -29134.32599 EV
          CORE-CORE REPULSION     =      25191.88830 EV
          DIELECTRIC ENERGY       =         -3.14401 EV
          COSMO AREA              =        311.63 SQUARE ANGSTROMS
          COSMO VOLUME            =        357.90 CUBIC ANGSTROMS

          NO. OF FILLED LEVELS    =         60
          MOLECULAR WEIGHT        =        333.280

          MOLECULAR DIMENSIONS (Angstroms)

            Atom       Atom       Distance
            H    28    O    33    12.34306
            H    19    H    16     6.86475
            H    31    O    25     4.69366


          SCF CALCULATIONS        =          2
          COMPUTATION TIME        =          0.494 SECONDS




   ATOM           CHEMICAL             X               Y              Z
  NUMBER           SYMBOL         (ANGSTROMS)     (ANGSTROMS)    (ANGSTROMS)
 
     1       N(     1  N     )    2.7430000  *  -26.731000  *   10.567000  *
     2       C(     2  C     )    1.7460000  *  -26.457000  *    9.705000  *
     3       O(     3  O     )    1.9150000  *  -26.626000  *    8.512000  *
     4       C(     4  C     )    0.4540000  *  -25.956000  *   10.196000  *
     5       C(     5  C     )   -0.5990000  *  -25.661000  *    9.344000  *
     6       C(     6  C     )   -1.8020000  *  -25.189000  *    9.857000  *
     7       C(     7  C     )   -1.9840000  *  -25.003000  *   11.196000  *
     8       C(     8  C     )    0.2840000  *  -25.770000  *   11.587000  *
     9       C(     9  C     )   -0.9420000  *  -25.291000  *   12.094000  *
    10       C(    10  C     )   -1.0800000  *  -25.115000  *   13.483000  *
    11       C(    11  C     )   -0.0390000  *  -25.408000  *   14.316000  *
    12       C(    12  C     )    1.1740000  *  -25.881000  *   13.828000  *
    13       C(    13  C     )    1.3510000  *  -26.066000  *   12.464000  *
    14       C(    14  C     )    2.6110000  *  -26.569000  *   11.898000  *
    15       O(    15  O     )    3.5430000  *  -26.831000  *   12.634000  *
    16       H(    16  C     )   -0.4840000  *  -25.798000  *    8.278000  *
    17       H(    17  C     )   -2.6120000  *  -24.965000  *    9.178000  *
    18       H(    18  C     )   -2.0110000  *  -24.750000  *   13.891000  *
    19       H(    19  C     )   -0.1600000  *  -25.268000  *   15.380000  *
    20       H(    20  C     )    1.9800000  *  -26.103000  *   14.512000  *
    21       C(    21  C     )    3.9600000  *  -27.208000  *   10.063000  *
    22       C(    22  C     )    4.1450000  *  -28.569000  *    9.868000  *
    23       C(    23  C     )    5.3510000  *  -29.036000  *    9.369000  *
    24       H(    24  C     )    3.3520000  *  -29.262000  *   10.104000  *
    25       O(    25  O     )    5.5360000  *  -30.369000  *    9.178000  *
    26       C(    26  C     )    6.3710000  *  -28.144000  *    9.072000  *
    27       C(    27  C     )    6.1820000  *  -26.788000  *    9.262000  *
    28       H(    28  C     )    7.3100000  *  -28.508000  *    8.683000  *
    29       C(    29  C     )    4.9820000  *  -26.319000  *    9.759000  *
    30       H(    30  C     )    6.9760000  *  -26.095000  *    9.025000  *
    31       H(    31  C     )    4.8390000  *  -25.258000  *    9.911000  *
    32       N(    32  N     )   -3.2800000  *  -24.499000  *   11.704000  *
    33       O(    33  O     )   -4.0320000  *  -25.248000  *   12.300000  *
    34       O(    34  O     )   -3.5940000  *  -23.337000  *   11.523000  *

           Empirical Formula: C18 H9 N2 O5  =    34 atoms



              NET ATOMIC CHARGES AND DIPOLE CONTRIBUTIONS

  ATOM NO.   TYPE          CHARGE      No. of ELECS.   s-Pop       p-Pop       
    1          N          -0.362859        5.3629     1.47577     3.88709
    2          C           0.636916        3.3631     1.05311     2.30998
    3          O          -0.553413        6.5534     1.85102     4.70239
    4          C          -0.230227        4.2302     1.10128     3.12894
    5          C           0.042088        3.9579     1.10767     2.85024
    6          C          -0.138341        4.1383     1.10248     3.03586
    7          C          -0.065195        4.0652     1.10660     2.95860
    8          C           0.150906        3.8491     1.07016     2.77894
    9          C          -0.060155        4.0602     1.07108     2.98908
   10          C          -0.047046        4.0470     1.10856     2.93849
   11          C          -0.204273        4.2043     1.10337     3.10090
   12          C           0.078009        3.9220     1.11093     2.81106
   13          C          -0.286226        4.2862     1.09554     3.19069
   14          C           0.643343        3.3567     1.05364     2.30301
   15          O          -0.561837        6.5618     1.85019     4.71165
   16          H           0.193455        0.8065     0.80654
   17          H           0.206531        0.7935     0.79347
   18          H           0.178045        0.8220     0.82195
   19          H           0.194502        0.8055     0.80550
   20          H           0.180736        0.8193     0.81926
   21          C           0.010216        3.9898     1.06460     2.92519
   22          C          -0.015237        4.0152     1.14910     2.86614
   23          C           0.373734        3.6263     1.10003     2.52623
   24          H           0.243000        0.7570     0.75700
   25          O          -0.268018        6.2680     1.92740     4.34061
   26          C           0.053301        3.9467     1.14608     2.80062
   27          C          -0.242029        4.2420     1.11493     3.12710
   28          H           0.232891        0.7671     0.76711
   29          C           0.270364        3.7296     1.14827     2.58137
   30          H           0.243123        0.7569     0.75688
   31          H           0.221773        0.7782     0.77823
   32          N           0.839768        4.1602     1.30479     2.85544
   33          O          -0.481802        6.4818     1.91722     4.56458
   34          O          -0.476044        6.4760     1.91736     4.55868
 DIPOLE           X         Y         Z       TOTAL
 POINT-CHG.    17.803    -2.522    -5.203    18.718
 HYBRID        -0.136    -0.275    -0.080     0.317
 SUM           17.667    -2.797    -5.284    18.651


          CARTESIAN COORDINATES 

    NO.       ATOM               X         Y         Z

     1         N                  2.7430  -26.7310   10.5670
     2         C                  1.7460  -26.4570    9.7050
     3         O                  1.9150  -26.6260    8.5120
     4         C                  0.4540  -25.9560   10.1960
     5         C                 -0.5990  -25.6610    9.3440
     6         C                 -1.8020  -25.1890    9.8570
     7         C                 -1.9840  -25.0030   11.1960
     8         C                  0.2840  -25.7700   11.5870
     9         C                 -0.9420  -25.2910   12.0940
    10         C                 -1.0800  -25.1150   13.4830
    11         C                 -0.0390  -25.4080   14.3160
    12         C                  1.1740  -25.8810   13.8280
    13         C                  1.3510  -26.0660   12.4640
    14         C                  2.6110  -26.5690   11.8980
    15         O                  3.5430  -26.8310   12.6340
    16         H                 -0.4840  -25.7980    8.2780
    17         H                 -2.6120  -24.9650    9.1780
    18         H                 -2.0110  -24.7500   13.8910
    19         H                 -0.1600  -25.2680   15.3800
    20         H                  1.9800  -26.1030   14.5120
    21         C                  3.9600  -27.2080   10.0630
    22         C                  4.1450  -28.5690    9.8680
    23         C                  5.3510  -29.0360    9.3690
    24         H                  3.3520  -29.2620   10.1040
    25         O                  5.5360  -30.3690    9.1780
    26         C                  6.3710  -28.1440    9.0720
    27         C                  6.1820  -26.7880    9.2620
    28         H                  7.3100  -28.5080    8.6830
    29         C                  4.9820  -26.3190    9.7590
    30         H                  6.9760  -26.0950    9.0250
    31         H                  4.8390  -25.2580    9.9110
    32         N                 -3.2800  -24.4990   11.7040
    33         O                 -4.0320  -25.2480   12.3000
    34         O                 -3.5940  -23.3370   11.5230


          ATOMIC ORBITAL ELECTRON POPULATIONS

   1.47577   1.15734   1.57909   1.15066   1.05311   0.81797   0.69833   0.79368
   1.85102   1.81711   1.57253   1.31276   1.10128   1.00937   1.11162   1.00796
   1.10767   0.92083   0.85287   1.07654   1.10248   1.06153   0.97772   0.99660
   1.10660   0.91485   1.04356   1.00019   1.07016   0.93812   0.91383   0.92699
   1.07108   0.96650   1.04798   0.97459   1.10856   1.05741   0.92093   0.96015
   1.10337   0.98072   1.01454   1.10565   1.11093   1.01117   0.82466   0.97523
   1.09554   1.00302   1.16643   1.02124   1.05364   0.84070   0.69610   0.76622
   1.85019   1.50694   1.56342   1.64128   0.80654   0.79347   0.82195   0.80550
   0.81926   1.06460   0.91033   0.96395   1.05091   1.14910   1.04546   1.03080
   0.78988   1.10003   0.90872   0.87223   0.74528   0.75700   1.92740   1.84049
   1.21265   1.28748   1.14608   1.05802   0.98338   0.75922   1.11493   1.06696
   1.04233   1.01781   0.76711   1.14827   0.89752   1.09635   0.58749   0.75688
   0.77823   1.30479   0.98242   0.94226   0.93076   1.91722   1.53045   1.58504
   1.44909   1.91736   1.78501   1.15348   1.62018

           MULLIKEN POPULATION ANALYSIS



        MULLIKEN POPULATIONS AND CHARGES

      NO.  ATOM   POPULATION      CHARGE
        1    N     5.525064     -0.525064
        2    C     3.281364      0.718636
        3    O     6.570820     -0.570820
        4    C     4.260312     -0.260312
        5    C     3.994357      0.005643
        6    C     4.192017     -0.192017
        7    C     4.062536     -0.062536
        8    C     3.823749      0.176251
        9    C     4.065088     -0.065088
       10    C     4.092325     -0.092325
       11    C     4.268696     -0.268696
       12    C     3.956294      0.043706
       13    C     4.316120     -0.316120
       14    C     3.274387      0.725613
       15    O     6.579838     -0.579838
       16    H     0.745994      0.254006
       17    H     0.728720      0.271280
       18    H     0.765034      0.234966
       19    H     0.744196      0.255804
       20    H     0.761729      0.238271
       21    C     3.976888      0.023112
       22    C     4.078610     -0.078610
       23    C     3.628574      0.371426
       24    H     0.681488      0.318512
       25    O     6.275002     -0.275002
       26    C     4.011887     -0.011887
       27    C     4.318450     -0.318450
       28    H     0.694621      0.305379
       29    C     3.783331      0.216669
       30    H     0.681712      0.318288
       31    H     0.709217      0.290783
       32    N     4.213252      0.786748
       33    O     6.472129     -0.472129
       34    O     6.466199     -0.466199



 TOTAL CPU TIME:             0.51 SECONDS

 == MOPAC DONE ==
 *******************************************************************************
 ** Site#:  958            For non-commercial use only         Version 9.015L **
 *******************************************************************************
 ** Cite this work as: MOPAC2009, James J. P. Stewart, Stewart Computational  **
 ** Chemistry, Version 9.015L web: HTTP://OpenMOPAC.net                       **
 *******************************************************************************
 **                                                                           **
 **                                MOPAC2009                                  **
 **                                                                           **
 *******************************************************************************

                            PM6 CALCULATION RESULTS


 *******************************************************************************
 *  CALCULATION DONE:                                Tue Sep  6 17:23:20 2011  *
 *  PM6      - The PM6 Hamiltonian to be used
 *  GEO-OK   - OVERRIDE INTERATOMIC DISTANCE CHECK
 *  MOZYME   - USE LOCALIZED M.O.s IN SOLVING THE SCF EQUATIONS
 *
 *
 *
 *                 CHARGE ON SYSTEM =     1
 *
 *
 *
 *  EPS= 78.400
 *  RSOLV=  1.300
 *  OLDGEO   - PREVIOUS GEOMETRY TO BE USED
 *  T=       - A TIME OF 172800.0 SECONDS REQUESTED
 *  DUMP=N   - RESTART FILE WRITTEN EVERY  4320.000 SECONDS
 *  RELSCF   - DEFAULT SCF CRITERION MULTIPLIED BY   0.100    
 *             (DEFAULT SCFCRT= 0.00010)
 *  THERMO   - THERMODYNAMIC QUANTITIES TO BE CALCULATED
 *******************************************************************************
 PM6 DUMP=4320 MOZYME RELSCF=0.1 THERMO EPS=78.40 RSOLV=1.30 +
 OLDGEO GEO-OK CHARGE=1
 SJ000001185-1_T001S001I002C02_001: Free energy calculation

   ATOM           CHEMICAL             X               Y              Z
  NUMBER           SYMBOL         (ANGSTROMS)     (ANGSTROMS)    (ANGSTROMS)
 
     1       N(     1  N     )    2.7430000  *  -26.731000  *   10.567000  *
     2       C(     2  C     )    1.7460000  *  -26.457000  *    9.705000  *
     3       O(     3  O     )    1.9150000  *  -26.626000  *    8.512000  *
     4       C(     4  C     )    0.4540000  *  -25.956000  *   10.196000  *
     5       C(     5  C     )   -0.5990000  *  -25.661000  *    9.344000  *
     6       C(     6  C     )   -1.8020000  *  -25.189000  *    9.857000  *
     7       C(     7  C     )   -1.9840000  *  -25.003000  *   11.196000  *
     8       C(     8  C     )    0.2840000  *  -25.770000  *   11.587000  *
     9       C(     9  C     )   -0.9420000  *  -25.291000  *   12.094000  *
    10       C(    10  C     )   -1.0800000  *  -25.115000  *   13.483000  *
    11       C(    11  C     )   -0.0390000  *  -25.408000  *   14.316000  *
    12       C(    12  C     )    1.1740000  *  -25.881000  *   13.828000  *
    13       C(    13  C     )    1.3510000  *  -26.066000  *   12.464000  *
    14       C(    14  C     )    2.6110000  *  -26.569000  *   11.898000  *
    15       O(    15  O     )    3.5430000  *  -26.831000  *   12.634000  *
    16       H(    16  C     )   -0.4840000  *  -25.798000  *    8.278000  *
    17       H(    17  C     )   -2.6120000  *  -24.965000  *    9.178000  *
    18       H(    18  C     )   -2.0110000  *  -24.750000  *   13.891000  *
    19       H(    19  C     )   -0.1600000  *  -25.268000  *   15.380000  *
    20       H(    20  C     )    1.9800000  *  -26.103000  *   14.512000  *
    21       C(    21  C     )    3.9600000  *  -27.208000  *   10.063000  *
    22       C(    22  C     )    4.1450000  *  -28.569000  *    9.868000  *
    23       C(    23  C     )    5.3510000  *  -29.036000  *    9.369000  *
    24       H(    24  C     )    3.3520000  *  -29.262000  *   10.104000  *
    25       O(    25  O     )    5.5360000  *  -30.369000  *    9.178000  *
    26       C(    26  C     )    6.3710000  *  -28.144000  *    9.072000  *
    27       C(    27  C     )    6.1820000  *  -26.788000  *    9.262000  *
    28       H(    28  C     )    7.3100000  *  -28.508000  *    8.683000  *
    29       C(    29  C     )    4.9820000  *  -26.319000  *    9.759000  *
    30       H(    30  C     )    6.9760000  *  -26.095000  *    9.025000  *
    31       H(    31  C     )    4.8390000  *  -25.258000  *    9.911000  *
    32       N(    32  N     )   -3.2800000  *  -24.499000  *   11.704000  *
    33       O(    33  O     )   -4.0320000  *  -25.248000  *   12.300000  *
    34       O(    34  O     )   -3.5940000  *  -23.337000  *   11.523000  *
 


          CARTESIAN COORDINATES 

    NO.       ATOM         X         Y         Z

     1         N        2.7430  -26.7310   10.5670
     2         C        1.7460  -26.4570    9.7050
     3         O        1.9150  -26.6260    8.5120
     4         C        0.4540  -25.9560   10.1960
     5         C       -0.5990  -25.6610    9.3440
     6         C       -1.8020  -25.1890    9.8570
     7         C       -1.9840  -25.0030   11.1960
     8         C        0.2840  -25.7700   11.5870
     9         C       -0.9420  -25.2910   12.0940
    10         C       -1.0800  -25.1150   13.4830
    11         C       -0.0390  -25.4080   14.3160
    12         C        1.1740  -25.8810   13.8280
    13         C        1.3510  -26.0660   12.4640
    14         C        2.6110  -26.5690   11.8980
    15         O        3.5430  -26.8310   12.6340
    16         H       -0.4840  -25.7980    8.2780
    17         H       -2.6120  -24.9650    9.1780
    18         H       -2.0110  -24.7500   13.8910
    19         H       -0.1600  -25.2680   15.3800
    20         H        1.9800  -26.1030   14.5120
    21         C        3.9600  -27.2080   10.0630
    22         C        4.1450  -28.5690    9.8680
    23         C        5.3510  -29.0360    9.3690
    24         H        3.3520  -29.2620   10.1040
    25         O        5.5360  -30.3690    9.1780
    26         C        6.3710  -28.1440    9.0720
    27         C        6.1820  -26.7880    9.2620
    28         H        7.3100  -28.5080    8.6830
    29         C        4.9820  -26.3190    9.7590
    30         H        6.9760  -26.0950    9.0250
    31         H        4.8390  -25.2580    9.9110
    32         N       -3.2800  -24.4990   11.7040
    33         O       -4.0320  -25.2480   12.3000
    34         O       -3.5940  -23.3370   11.5230

 General Reference for PM6:
 "Optimization of Parameters for Semiempirical Methods V: Modification of NDDO Approximations
 and Application to 70 Elements", J. J. P. Stewart, J. Mol. Mod., 13, 1173-1213 (2007)
 URL: http://www.springerlink.com/content/ar33482301010477/fulltext.pdf

           Empirical Formula: C18 H9 N2 O5  =    34 atoms



      MOLECULAR POINT GROUP   :   C1  
 
   NUMBER AND TYPES OF BONDS IDENTIFIED
 
         SIGMA BONDS               38
         LONE PAIRS                12
         NORMAL PI BONDS            5
         AROMATIC RING PI BONDS     5
         CATIONS                    1
 

 COMPUTED CHARGE ON SYSTEM:   1
  SCF CRITERION =    0.1000E-02


          HEAT OF FORMATION =     176.118169 KCALS/MOLE


          INTERNAL COORDINATE DERIVATIVES

   NUMBER  ATOM       BOND         ANGLE      DIHEDRAL

     1       N
     2       C     11.577128
     3       O    -22.304360     1.167949
     4       C   -116.837357   -11.579636    -0.538119
     5       C    -10.925940   -25.992954     0.166021
     6       C    -12.132285    10.216740     0.032633
     7       C     23.018337   -26.453707    -0.259097
     8       C    -28.297373    14.256271     0.746628
     9       C     -8.207043     6.044321     0.089417
    10       C     -1.762482    -0.389458     0.290166
    11       C      6.014160     3.527436    -0.328575
    12       C      3.984075    15.051490    -0.127636
    13       C     -0.612595    23.069790     0.098673
    14       C     11.463179   -29.496248     0.260896
    15       O     -1.180096     9.368830    -0.972611
    16       H     68.495645    99.857349     0.448827
    17       H     29.292386    -6.212036    -0.221079
    18       H     -7.738700   -11.050456     0.072804
    19       H    -16.275041    -3.175577    -0.002156
    20       H     -3.856982    10.800518    -0.145894
    21       C      8.236386    10.788562    -0.021026
    22       C     13.098377    -0.455215    -0.043268
    23       C     14.735154   -33.209019   -68.299955
    24       H    -50.909734    93.412209    14.155397
    25       O     56.992589  -122.661289  -233.907863
    26       C     -5.233155     7.605472   -20.024508
    27       C    -35.641751    76.740397   144.332898
    28       H     22.970217   -34.843518   102.196034
    29       C     21.755675   -39.663096   -18.265448
    30       H     10.445107   -18.439991    -0.450266
    31       H      0.837488     2.700324    43.882405
    32       N      4.986094    -7.728720    16.009720
    33       O     -4.055656     8.930082    19.830817
    34       O    -12.781431    13.632191     0.716597


          GRADIENT NORM = 417.53743



 ** GRADIENT IS TOO LARGE TO ALLOW FORCE MATRIX TO BE CALCULATED, (LIMIT=10) **



 EITHER ADD 'LET' OR REDUCE GRADIENT
 USING 'TS' OR OTHER GEOMETRY OPTIMIZER



 TOTAL CPU TIME:             1.15 SECONDS

 == MOPAC DONE ==
