 *******************************************************************************
 ** Site#:  958            For non-commercial use only         Version 9.015L **
 *******************************************************************************
 ** Cite this work as: MOPAC2009, James J. P. Stewart, Stewart Computational  **
 ** Chemistry, Version 9.015L web: HTTP://OpenMOPAC.net                       **
 *******************************************************************************
 **                                                                           **
 **                                MOPAC2009                                  **
 **                                                                           **
 *******************************************************************************

                            PM6 CALCULATION RESULTS


 *******************************************************************************
 *  CALCULATION DONE:                                Thu Sep  8 09:30:27 2011  *
 *  PM6      - The PM6 Hamiltonian to be used
 *  PDBOUT   - PRINT GEOMETY IN PDB FORMAT
 *  MOZYME   - USE LOCALIZED M.O.s IN SOLVING THE SCF EQUATIONS
 *
 *
 *
 *                 CHARGE ON SYSTEM =     0
 *
 *
 *
 *  EPS= 78.400
 *  RSOLV=  1.300
 *  LET      - OVERRIDE SOME SAFETY CHECKS
 *  XYZ      - CARTESIAN COORDINATE SYSTEM TO BE USED
 *  LBFGS    - USE THE LBFGS GEOMETRY OPTIMIZER
 *  1SCF     - DO 1 SCF AND THEN STOP 
 *  T=       - A TIME OF  0.3E+08 SECONDS REQUESTED
 *  DUMP=N   - RESTART FILE WRITTEN EVERY  4320.000 SECONDS
 *  DDMIN=   - MINIMUM TRUST RADIUS  0.000 ANG/RAD
 *  GNORM=   - EXIT WHEN GRADIENT NORM DROPS BELOW .150    
 *  RELSCF   - DEFAULT SCF CRITERION MULTIPLIED BY   0.100    
 *             (DEFAULT SCFCRT= 0.00010)
 *  MULLIK   - THE MULLIKEN ANALYSIS TO BE PERFORMED
 *******************************************************************************
 PM6 T=31387825 DUMP=4320 XYZ EPS=78.40 RSOLV=1.30 MULLIK LBFGS MOZYME PDBOUT +
 CHARGE=0 RELSCF=0.1 LET DDMIN=0.0 GNORM=0.15 1SCF
 SJ000002349-1_T001S001I001C07_001: Geometry optimization step

   ATOM   CHEMICAL          X               Y              Z
  NUMBER   SYMBOL      (ANGSTROMS)     (ANGSTROMS)    (ANGSTROMS)
 
     1       C          0.7160000  *  -25.691000  *   13.105000  *
     2       C         -0.7290000  *  -25.934000  *   13.538000  *
     3       C         -1.6770000  *  -25.585000  *   12.414000  *
     4       C         -1.2940000  *  -25.759000  *   11.134000  *
     5       C         -2.2420000  *  -25.415000  *   10.012000  *
     6       C         -3.6610000  *  -25.337000  *   10.518000  *
     7       C         -3.8990000  *  -25.189000  *   11.836000  *
     8       C         -5.3210000  *  -25.119000  *   12.342000  *
     9       C         -6.2360000  *  -25.967000  *   11.460000  *
    10       C         -6.1530000  *  -25.360000  *   10.058000  *
    11       C         -4.7220000  *  -25.418000  *    9.597000  *
    12       O         -4.4790000  *  -25.537000  *    8.414000  *
    13       O         -2.8910000  *  -25.098000  *   12.717000  *
    14       C         -0.0180000  *  -26.261000  *   10.824000  *
    15       O          0.2990000  *  -26.411000  *    9.661000  *
    16       C          0.9610000  *  -26.616000  *   11.910000  *
    17       H         -0.8560000  *  -26.984000  *   13.803000  *
    18       H         -0.9550000  *  -25.314000  *   14.405000  *
    19       H         -1.9590000  *  -24.453000  *    9.586000  *
    20       H         -5.3570000  *  -25.492000  *   13.366000  *
    21       H         -5.6590000  *  -24.083000  *   12.323000  *
    22       H         -6.7830000  *  -25.929000  *    9.373000  *
    23       H         -6.4870000  *  -24.323000  *   10.087000  *
    24       H          1.9790000  *  -26.482000  *   11.544000  *
    25       H          0.8140000  *  -27.652000  *   12.212000  *
    26       C         -2.1530000  *  -26.476000  *    8.946000  *
    27       C         -2.4520000  *  -27.795000  *    9.254000  *
    28       C         -2.3690000  *  -28.772000  *    8.273000  *
    29       C         -1.9880000  *  -28.426000  *    6.985000  *
    30       H         -2.6020000  *  -29.799000  *    8.511000  *
    31       C         -1.6890000  *  -27.106000  *    6.682000  *
    32       C         -1.7780000  *  -26.134000  *    7.661000  *
    33       H         -1.3910000  *  -26.836000  *    5.679000  *
    34       H         -1.5460000  *  -25.106000  *    7.422000  *
    35       O         -2.8260000  *  -28.131000  *   10.517000  *
    36       H         -2.6070000  *  -29.040000  *   10.764000  *
    37       O         -1.9060000  *  -29.381000  *    6.022000  *
    38       H         -1.5200000  *  -30.215000  *    6.326000  *
    39       C          0.9030000  *  -24.232000  *   12.687000  *
    40       H          1.2250000  *  -24.190000  *   11.646000  *
    41       H         -0.0420000  *  -23.698000  *   12.795000  *
    42       H          1.6570000  *  -23.765000  *   13.321000  *
    43       C          1.6740000  *  -26.040000  *   14.246000  *
    44       H          2.5810000  *  -26.484000  *   13.834000  *
    45       H          1.9300000  *  -25.135000  *   14.796000  *
    46       H          1.1940000  *  -26.752000  *   14.918000  *
    47       C         -5.7480000  *  -27.417000  *   11.435000  *
    48       H         -5.3670000  *  -27.655000  *   10.441000  *
    49       H         -4.9520000  *  -27.546000  *   12.169000  *
    50       H         -6.5750000  *  -28.084000  *   11.677000  *
    51       C         -7.6740000  *  -25.904000  *   11.979000  *
    52       H         -8.1750000  *  -26.851000  *   11.776000  *
    53       H         -7.6640000  *  -25.722000  *   13.053000  *
    54       H         -8.2060000  *  -25.096000  *   11.478000  *
 


          CARTESIAN COORDINATES 

    NO.       ATOM         X         Y         Z

     1         C        0.7160  -25.6910   13.1050
     2         C       -0.7290  -25.9340   13.5380
     3         C       -1.6770  -25.5850   12.4140
     4         C       -1.2940  -25.7590   11.1340
     5         C       -2.2420  -25.4150   10.0120
     6         C       -3.6610  -25.3370   10.5180
     7         C       -3.8990  -25.1890   11.8360
     8         C       -5.3210  -25.1190   12.3420
     9         C       -6.2360  -25.9670   11.4600
    10         C       -6.1530  -25.3600   10.0580
    11         C       -4.7220  -25.4180    9.5970
    12         O       -4.4790  -25.5370    8.4140
    13         O       -2.8910  -25.0980   12.7170
    14         C       -0.0180  -26.2610   10.8240
    15         O        0.2990  -26.4110    9.6610
    16         C        0.9610  -26.6160   11.9100
    17         H       -0.8560  -26.9840   13.8030
    18         H       -0.9550  -25.3140   14.4050
    19         H       -1.9590  -24.4530    9.5860
    20         H       -5.3570  -25.4920   13.3660
    21         H       -5.6590  -24.0830   12.3230
    22         H       -6.7830  -25.9290    9.3730
    23         H       -6.4870  -24.3230   10.0870
    24         H        1.9790  -26.4820   11.5440
    25         H        0.8140  -27.6520   12.2120
    26         C       -2.1530  -26.4760    8.9460
    27         C       -2.4520  -27.7950    9.2540
    28         C       -2.3690  -28.7720    8.2730
    29         C       -1.9880  -28.4260    6.9850
    30         H       -2.6020  -29.7990    8.5110
    31         C       -1.6890  -27.1060    6.6820
    32         C       -1.7780  -26.1340    7.6610
    33         H       -1.3910  -26.8360    5.6790
    34         H       -1.5460  -25.1060    7.4220
    35         O       -2.8260  -28.1310   10.5170
    36         H       -2.6070  -29.0400   10.7640
    37         O       -1.9060  -29.3810    6.0220
    38         H       -1.5200  -30.2150    6.3260
    39         C        0.9030  -24.2320   12.6870
    40         H        1.2250  -24.1900   11.6460
    41         H       -0.0420  -23.6980   12.7950
    42         H        1.6570  -23.7650   13.3210
    43         C        1.6740  -26.0400   14.2460
    44         H        2.5810  -26.4840   13.8340
    45         H        1.9300  -25.1350   14.7960
    46         H        1.1940  -26.7520   14.9180
    47         C       -5.7480  -27.4170   11.4350
    48         H       -5.3670  -27.6550   10.4410
    49         H       -4.9520  -27.5460   12.1690
    50         H       -6.5750  -28.0840   11.6770
    51         C       -7.6740  -25.9040   11.9790
    52         H       -8.1750  -26.8510   11.7760
    53         H       -7.6640  -25.7220   13.0530
    54         H       -8.2060  -25.0960   11.4780

 General Reference for PM6:
 "Optimization of Parameters for Semiempirical Methods V: Modification of NDDO Approximations
 and Application to 70 Elements", J. J. P. Stewart, J. Mol. Mod., 13, 1173-1213 (2007)
 URL: http://www.springerlink.com/content/ar33482301010477/fulltext.pdf

           Empirical Formula: C23 H26 O5  =    54 atoms



      MOLECULAR POINT GROUP   :   C1  
 
   NUMBER AND TYPES OF BONDS IDENTIFIED
 
         SIGMA BONDS               57
         LONE PAIRS                10
         NORMAL PI BONDS            6
         AROMATIC RING PI BONDS     1
 

                  Ramachandran Angles
              Residue    phi    psi  omega

  
  SCF CRITERION =    0.1000E-02

 -------------------------------------------------------------------------------
 PM6 T=31387825 DUMP=4320 XYZ EPS=78.40 RSOLV=1.30 MULLIK LBFGS MOZYME PDBOUT +
 CHARGE=0 RELSCF=0.1 LET DDMIN=0.0 GNORM=0.15 1SCF
 SJ000002349-1_T001S001I001C07_001: Geometry optimization step



     1SCF WAS SPECIFIED, SO BFGS WAS NOT USED                 
     SCF FIELD WAS ACHIEVED                                   


                               PM6     CALCULATION
                                                       MOPAC2009 (Version: 9.015L)
                                                       Thu Sep  8 09:30:28 2011




          FINAL HEAT OF FORMATION =       -182.12626 KCAL =    -762.01626 KJ
          VAN DER WAALS AREA      =        350.94 SQUARE ANGSTROMS


          TOTAL ENERGY            =      -4642.33420 EV
          ELECTRONIC ENERGY       =     -42373.97522 EV
          CORE-CORE REPULSION     =      37731.64102 EV
          DIELECTRIC ENERGY       =         -1.32180 EV
          COSMO AREA              =        350.94 SQUARE ANGSTROMS
          COSMO VOLUME            =        430.32 CUBIC ANGSTROMS

          NO. OF FILLED LEVELS    =         74
          MOLECULAR WEIGHT        =        382.455

          MOLECULAR DIMENSIONS (Angstroms)

            Atom       Atom       Distance
            H    45    H    38    10.46183
            H    54    H    44    10.04420
            H    34    H    50     5.90722


          SCF CALCULATIONS        =          2
          COMPUTATION TIME        =          0.562 SECONDS




   ATOM           CHEMICAL             X               Y              Z
  NUMBER           SYMBOL         (ANGSTROMS)     (ANGSTROMS)    (ANGSTROMS)
 
     1       C(     1  C     )    0.7160000  *  -25.691000  *   13.105000  *
     2       C(     2  C     )   -0.7290000  *  -25.934000  *   13.538000  *
     3       C(     3  C     )   -1.6770000  *  -25.585000  *   12.414000  *
     4       C(     4  C     )   -1.2940000  *  -25.759000  *   11.134000  *
     5       C(     5  C     )   -2.2420000  *  -25.415000  *   10.012000  *
     6       C(     6  C     )   -3.6610000  *  -25.337000  *   10.518000  *
     7       C(     7  C     )   -3.8990000  *  -25.189000  *   11.836000  *
     8       C(     8  C     )   -5.3210000  *  -25.119000  *   12.342000  *
     9       C(     9  C     )   -6.2360000  *  -25.967000  *   11.460000  *
    10       C(    10  C     )   -6.1530000  *  -25.360000  *   10.058000  *
    11       C(    11  C     )   -4.7220000  *  -25.418000  *    9.597000  *
    12       O(    12  O     )   -4.4790000  *  -25.537000  *    8.414000  *
    13       O(    13  O     )   -2.8910000  *  -25.098000  *   12.717000  *
    14       C(    14  C     )   -0.0180000  *  -26.261000  *   10.824000  *
    15       O(    15  O     )    0.2990000  *  -26.411000  *    9.661000  *
    16       C(    16  C     )    0.9610000  *  -26.616000  *   11.910000  *
    17       H(    17  C     )   -0.8560000  *  -26.984000  *   13.803000  *
    18       H(    18  C     )   -0.9550000  *  -25.314000  *   14.405000  *
    19       H(    19  C     )   -1.9590000  *  -24.453000  *    9.586000  *
    20       H(    20  C     )   -5.3570000  *  -25.492000  *   13.366000  *
    21       H(    21  C     )   -5.6590000  *  -24.083000  *   12.323000  *
    22       H(    22  C     )   -6.7830000  *  -25.929000  *    9.373000  *
    23       H(    23  C     )   -6.4870000  *  -24.323000  *   10.087000  *
    24       H(    24  C     )    1.9790000  *  -26.482000  *   11.544000  *
    25       H(    25  C     )    0.8140000  *  -27.652000  *   12.212000  *
    26       C(    26  C     )   -2.1530000  *  -26.476000  *    8.946000  *
    27       C(    27  C     )   -2.4520000  *  -27.795000  *    9.254000  *
    28       C(    28  C     )   -2.3690000  *  -28.772000  *    8.273000  *
    29       C(    29  C     )   -1.9880000  *  -28.426000  *    6.985000  *
    30       H(    30  C     )   -2.6020000  *  -29.799000  *    8.511000  *
    31       C(    31  C     )   -1.6890000  *  -27.106000  *    6.682000  *
    32       C(    32  C     )   -1.7780000  *  -26.134000  *    7.661000  *
    33       H(    33  C     )   -1.3910000  *  -26.836000  *    5.679000  *
    34       H(    34  C     )   -1.5460000  *  -25.106000  *    7.422000  *
    35       O(    35  O     )   -2.8260000  *  -28.131000  *   10.517000  *
    36       H(    36  O     )   -2.6070000  *  -29.040000  *   10.764000  *
    37       O(    37  O     )   -1.9060000  *  -29.381000  *    6.022000  *
    38       H(    38  O     )   -1.5200000  *  -30.215000  *    6.326000  *
    39       C(    39  C     )    0.9030000  *  -24.232000  *   12.687000  *
    40       H(    40  C     )    1.2250000  *  -24.190000  *   11.646000  *
    41       H(    41  C     )   -0.0420000  *  -23.698000  *   12.795000  *
    42       H(    42  C     )    1.6570000  *  -23.765000  *   13.321000  *
    43       C(    43  C     )    1.6740000  *  -26.040000  *   14.246000  *
    44       H(    44  C     )    2.5810000  *  -26.484000  *   13.834000  *
    45       H(    45  C     )    1.9300000  *  -25.135000  *   14.796000  *
    46       H(    46  C     )    1.1940000  *  -26.752000  *   14.918000  *
    47       C(    47  C     )   -5.7480000  *  -27.417000  *   11.435000  *
    48       H(    48  C     )   -5.3670000  *  -27.655000  *   10.441000  *
    49       H(    49  C     )   -4.9520000  *  -27.546000  *   12.169000  *
    50       H(    50  C     )   -6.5750000  *  -28.084000  *   11.677000  *
    51       C(    51  C     )   -7.6740000  *  -25.904000  *   11.979000  *
    52       H(    52  C     )   -8.1750000  *  -26.851000  *   11.776000  *
    53       H(    53  C     )   -7.6640000  *  -25.722000  *   13.053000  *
    54       H(    54  C     )   -8.2060000  *  -25.096000  *   11.478000  *

           Empirical Formula: C23 H26 O5  =    54 atoms



              NET ATOMIC CHARGES AND DIPOLE CONTRIBUTIONS

  ATOM NO.   TYPE          CHARGE      No. of ELECS.   s-Pop       p-Pop       
    1          C           0.288608        3.7114     1.06248     2.64891
    2          C          -0.421430        4.4214     1.10698     3.31445
    3          C           0.432243        3.5678     1.09875     2.46900
    4          C          -0.466363        4.4664     1.10994     3.35642
    5          C           0.137199        3.8628     1.04997     2.81283
    6          C          -0.469945        4.4699     1.11038     3.35956
    7          C           0.435674        3.5643     1.09841     2.46592
    8          C          -0.421849        4.4218     1.10689     3.31496
    9          C           0.289140        3.7109     1.06269     2.64817
   10          C          -0.534714        4.5347     1.11846     3.41625
   11          C           0.666499        3.3335     1.07340     2.26010
   12          O          -0.626803        6.6268     1.84425     4.78255
   13          O          -0.351205        6.3512     1.78149     4.56972
   14          C           0.663287        3.3367     1.07359     2.26312
   15          O          -0.625795        6.6258     1.84505     4.78074
   16          C          -0.534219        4.5342     1.11847     3.41575
   17          H           0.203632        0.7964     0.79637
   18          H           0.196470        0.8035     0.80353
   19          H           0.134836        0.8652     0.86516
   20          H           0.195335        0.8047     0.80466
   21          H           0.202795        0.7972     0.79720
   22          H           0.198940        0.8011     0.80106
   23          H           0.203938        0.7961     0.79606
   24          H           0.198907        0.8011     0.80109
   25          H           0.204135        0.7959     0.79586
   26          C          -0.169200        4.1692     1.08651     3.08269
   27          C           0.415243        3.5848     1.06148     2.52328
   28          C          -0.553046        4.5530     1.11223     3.44081
   29          C           0.416433        3.5836     1.05735     2.52622
   30          H           0.200727        0.7993     0.79927
   31          C          -0.413328        4.4133     1.09805     3.31528
   32          C           0.044725        3.9553     1.09527     2.86001
   33          H           0.183912        0.8161     0.81609
   34          H           0.149626        0.8504     0.85037
   35          O          -0.501016        6.5010     1.78294     4.71808
   36          H           0.355428        0.6446     0.64457
   37          O          -0.552238        6.5522     1.77751     4.77472
   38          H           0.370298        0.6297     0.62970
   39          C          -0.559056        4.5591     1.09774     3.46132
   40          H           0.170322        0.8297     0.82968
   41          H           0.170667        0.8293     0.82933
   42          H           0.174630        0.8254     0.82537
   43          C          -0.547555        4.5476     1.09601     3.45155
   44          H           0.172626        0.8274     0.82737
   45          H           0.173259        0.8267     0.82674
   46          H           0.170260        0.8297     0.82974
   47          C          -0.552716        4.5527     1.09746     3.45526
   48          H           0.173288        0.8267     0.82671
   49          H           0.171960        0.8280     0.82804
   50          H           0.169243        0.8308     0.83076
   51          C          -0.548230        4.5482     1.09590     3.45233
   52          H           0.173315        0.8267     0.82668
   53          H           0.170553        0.8294     0.82945
   54          H           0.170555        0.8294     0.82945


          CARTESIAN COORDINATES 

    NO.       ATOM               X         Y         Z

     1         C                  0.7160  -25.6910   13.1050
     2         C                 -0.7290  -25.9340   13.5380
     3         C                 -1.6770  -25.5850   12.4140
     4         C                 -1.2940  -25.7590   11.1340
     5         C                 -2.2420  -25.4150   10.0120
     6         C                 -3.6610  -25.3370   10.5180
     7         C                 -3.8990  -25.1890   11.8360
     8         C                 -5.3210  -25.1190   12.3420
     9         C                 -6.2360  -25.9670   11.4600
    10         C                 -6.1530  -25.3600   10.0580
    11         C                 -4.7220  -25.4180    9.5970
    12         O                 -4.4790  -25.5370    8.4140
    13         O                 -2.8910  -25.0980   12.7170
    14         C                 -0.0180  -26.2610   10.8240
    15         O                  0.2990  -26.4110    9.6610
    16         C                  0.9610  -26.6160   11.9100
    17         H                 -0.8560  -26.9840   13.8030
    18         H                 -0.9550  -25.3140   14.4050
    19         H                 -1.9590  -24.4530    9.5860
    20         H                 -5.3570  -25.4920   13.3660
    21         H                 -5.6590  -24.0830   12.3230
    22         H                 -6.7830  -25.9290    9.3730
    23         H                 -6.4870  -24.3230   10.0870
    24         H                  1.9790  -26.4820   11.5440
    25         H                  0.8140  -27.6520   12.2120
    26         C                 -2.1530  -26.4760    8.9460
    27         C                 -2.4520  -27.7950    9.2540
    28         C                 -2.3690  -28.7720    8.2730
    29         C                 -1.9880  -28.4260    6.9850
    30         H                 -2.6020  -29.7990    8.5110
    31         C                 -1.6890  -27.1060    6.6820
    32         C                 -1.7780  -26.1340    7.6610
    33         H                 -1.3910  -26.8360    5.6790
    34         H                 -1.5460  -25.1060    7.4220
    35         O                 -2.8260  -28.1310   10.5170
    36         H                 -2.6070  -29.0400   10.7640
    37         O                 -1.9060  -29.3810    6.0220
    38         H                 -1.5200  -30.2150    6.3260
    39         C                  0.9030  -24.2320   12.6870
    40         H                  1.2250  -24.1900   11.6460
    41         H                 -0.0420  -23.6980   12.7950
    42         H                  1.6570  -23.7650   13.3210
    43         C                  1.6740  -26.0400   14.2460
    44         H                  2.5810  -26.4840   13.8340
    45         H                  1.9300  -25.1350   14.7960
    46         H                  1.1940  -26.7520   14.9180
    47         C                 -5.7480  -27.4170   11.4350
    48         H                 -5.3670  -27.6550   10.4410
    49         H                 -4.9520  -27.5460   12.1690
    50         H                 -6.5750  -28.0840   11.6770
    51         C                 -7.6740  -25.9040   11.9790
    52         H                 -8.1750  -26.8510   11.7760
    53         H                 -7.6640  -25.7220   13.0530
    54         H                 -8.2060  -25.0960   11.4780


          ATOMIC ORBITAL ELECTRON POPULATIONS

   1.06248   0.86532   0.89527   0.88833   1.10698   1.03984   1.18901   1.08561
   1.09875   0.75239   0.77988   0.93673   1.10994   1.08592   1.23738   1.03313
   1.04997   0.86901   1.02754   0.91628   1.11038   1.07198   1.25495   1.03264
   1.09841   0.82344   0.78733   0.85515   1.10689   0.97890   1.17805   1.15801
   1.06269   0.89543   0.89167   0.86107   1.11846   1.09954   1.19216   1.12455
   1.07340   0.86126   0.59530   0.80355   1.84425   1.88056   1.52999   1.37199
   1.78149   1.29334   1.70479   1.57159   1.07359   0.82321   0.62948   0.81043
   1.84505   1.81993   1.57249   1.38833   1.11847   1.15584   1.16506   1.09485
   0.79637   0.80353   0.86516   0.80466   0.79720   0.80106   0.79606   0.80109
   0.79586   1.08651   1.09809   0.98375   1.00084   1.06148   0.83839   0.92269
   0.76220   1.11223   1.25501   1.13478   1.05102   1.05735   0.86672   0.84074
   0.81876   0.79927   1.09805   1.19264   1.00848   1.11416   1.09527   0.88304
   1.03695   0.94002   0.81609   0.85037   1.78294   1.80657   1.49271   1.41880
   0.64457   1.77751   1.83797   1.39283   1.54392   0.62970   1.09774   1.19485
   1.08058   1.18589   0.82968   0.82933   0.82537   1.09601   1.14223   1.18913
   1.12019   0.82737   0.82674   0.82974   1.09746   1.18014   1.07823   1.19689
   0.82671   0.82804   0.83076   1.09590   1.07842   1.19517   1.17873   0.82668
   0.82945   0.82945

           MULLIKEN POPULATION ANALYSIS



        MULLIKEN POPULATIONS AND CHARGES

      NO.  ATOM   POPULATION      CHARGE
        1    C     3.681914      0.318086
        2    C     4.540442     -0.540442
        3    C     3.544482      0.455518
        4    C     4.513474     -0.513474
        5    C     3.858801      0.141199
        6    C     4.517385     -0.517385
        7    C     3.540569      0.459431
        8    C     4.540705     -0.540705
        9    C     3.681408      0.318592
       10    C     4.665687     -0.665687
       11    C     3.281070      0.718930
       12    O     6.651951     -0.651951
       13    O     6.398876     -0.398876
       14    C     3.284606      0.715394
       15    O     6.650664     -0.650664
       16    C     4.665280     -0.665280
       17    H     0.740173      0.259827
       18    H     0.746733      0.253267
       19    H     0.820417      0.179583
       20    H     0.748589      0.251411
       21    H     0.740713      0.259287
       22    H     0.744476      0.255524
       23    H     0.740523      0.259477
       24    H     0.744580      0.255420
       25    H     0.739996      0.260004
       26    C     4.184054     -0.184054
       27    C     3.557835      0.442165
       28    C     4.637608     -0.637608
       29    C     3.555921      0.444079
       30    H     0.736992      0.263008
       31    C     4.482647     -0.482647
       32    C     3.983099      0.016901
       33    H     0.757846      0.242154
       34    H     0.802503      0.197497
       35    O     6.550671     -0.550671
       36    H     0.611354      0.388646
       37    O     6.604656     -0.604656
       38    H     0.595064      0.404936
       39    C     4.705065     -0.705065
       40    H     0.782172      0.217828
       41    H     0.781755      0.218245
       42    H     0.776929      0.223071
       43    C     4.694144     -0.694144
       44    H     0.779280      0.220720
       45    H     0.778541      0.221459
       46    H     0.781922      0.218078
       47    C     4.697453     -0.697453
       48    H     0.778514      0.221486
       49    H     0.780107      0.219893
       50    H     0.783678      0.216322
       51    C     4.694897     -0.694897
       52    H     0.778786      0.221214
       53    H     0.781666      0.218334
       54    H     0.781325      0.218675



 TOTAL CPU TIME:             0.60 SECONDS

 == MOPAC DONE ==
 *******************************************************************************
 ** Site#:  958            For non-commercial use only         Version 9.015L **
 *******************************************************************************
 ** Cite this work as: MOPAC2009, James J. P. Stewart, Stewart Computational  **
 ** Chemistry, Version 9.015L web: HTTP://OpenMOPAC.net                       **
 *******************************************************************************
 **                                                                           **
 **                                MOPAC2009                                  **
 **                                                                           **
 *******************************************************************************

                            PM6 CALCULATION RESULTS


 *******************************************************************************
 *  CALCULATION DONE:                                Thu Sep  8 09:30:28 2011  *
 *  PM6      - The PM6 Hamiltonian to be used
 *  GEO-OK   - OVERRIDE INTERATOMIC DISTANCE CHECK
 *  MOZYME   - USE LOCALIZED M.O.s IN SOLVING THE SCF EQUATIONS
 *
 *
 *
 *                 CHARGE ON SYSTEM =     0
 *
 *
 *
 *  EPS= 78.400
 *  RSOLV=  1.300
 *  OLDGEO   - PREVIOUS GEOMETRY TO BE USED
 *  T=       - A TIME OF 172800.0 SECONDS REQUESTED
 *  DUMP=N   - RESTART FILE WRITTEN EVERY  4320.000 SECONDS
 *  RELSCF   - DEFAULT SCF CRITERION MULTIPLIED BY   0.100    
 *             (DEFAULT SCFCRT= 0.00010)
 *  THERMO   - THERMODYNAMIC QUANTITIES TO BE CALCULATED
 *******************************************************************************
 PM6 DUMP=4320 MOZYME RELSCF=0.1 THERMO EPS=78.40 RSOLV=1.30 +
 OLDGEO GEO-OK CHARGE=0
 SJ000002349-1_T001S001I001C07_001: Free energy calculation

   ATOM           CHEMICAL             X               Y              Z
  NUMBER           SYMBOL         (ANGSTROMS)     (ANGSTROMS)    (ANGSTROMS)
 
     1       C(     1  C     )    0.7160000  *  -25.691000  *   13.105000  *
     2       C(     2  C     )   -0.7290000  *  -25.934000  *   13.538000  *
     3       C(     3  C     )   -1.6770000  *  -25.585000  *   12.414000  *
     4       C(     4  C     )   -1.2940000  *  -25.759000  *   11.134000  *
     5       C(     5  C     )   -2.2420000  *  -25.415000  *   10.012000  *
     6       C(     6  C     )   -3.6610000  *  -25.337000  *   10.518000  *
     7       C(     7  C     )   -3.8990000  *  -25.189000  *   11.836000  *
     8       C(     8  C     )   -5.3210000  *  -25.119000  *   12.342000  *
     9       C(     9  C     )   -6.2360000  *  -25.967000  *   11.460000  *
    10       C(    10  C     )   -6.1530000  *  -25.360000  *   10.058000  *
    11       C(    11  C     )   -4.7220000  *  -25.418000  *    9.597000  *
    12       O(    12  O     )   -4.4790000  *  -25.537000  *    8.414000  *
    13       O(    13  O     )   -2.8910000  *  -25.098000  *   12.717000  *
    14       C(    14  C     )   -0.0180000  *  -26.261000  *   10.824000  *
    15       O(    15  O     )    0.2990000  *  -26.411000  *    9.661000  *
    16       C(    16  C     )    0.9610000  *  -26.616000  *   11.910000  *
    17       H(    17  C     )   -0.8560000  *  -26.984000  *   13.803000  *
    18       H(    18  C     )   -0.9550000  *  -25.314000  *   14.405000  *
    19       H(    19  C     )   -1.9590000  *  -24.453000  *    9.586000  *
    20       H(    20  C     )   -5.3570000  *  -25.492000  *   13.366000  *
    21       H(    21  C     )   -5.6590000  *  -24.083000  *   12.323000  *
    22       H(    22  C     )   -6.7830000  *  -25.929000  *    9.373000  *
    23       H(    23  C     )   -6.4870000  *  -24.323000  *   10.087000  *
    24       H(    24  C     )    1.9790000  *  -26.482000  *   11.544000  *
    25       H(    25  C     )    0.8140000  *  -27.652000  *   12.212000  *
    26       C(    26  C     )   -2.1530000  *  -26.476000  *    8.946000  *
    27       C(    27  C     )   -2.4520000  *  -27.795000  *    9.254000  *
    28       C(    28  C     )   -2.3690000  *  -28.772000  *    8.273000  *
    29       C(    29  C     )   -1.9880000  *  -28.426000  *    6.985000  *
    30       H(    30  C     )   -2.6020000  *  -29.799000  *    8.511000  *
    31       C(    31  C     )   -1.6890000  *  -27.106000  *    6.682000  *
    32       C(    32  C     )   -1.7780000  *  -26.134000  *    7.661000  *
    33       H(    33  C     )   -1.3910000  *  -26.836000  *    5.679000  *
    34       H(    34  C     )   -1.5460000  *  -25.106000  *    7.422000  *
    35       O(    35  O     )   -2.8260000  *  -28.131000  *   10.517000  *
    36       H(    36  O     )   -2.6070000  *  -29.040000  *   10.764000  *
    37       O(    37  O     )   -1.9060000  *  -29.381000  *    6.022000  *
    38       H(    38  O     )   -1.5200000  *  -30.215000  *    6.326000  *
    39       C(    39  C     )    0.9030000  *  -24.232000  *   12.687000  *
    40       H(    40  C     )    1.2250000  *  -24.190000  *   11.646000  *
    41       H(    41  C     )   -0.0420000  *  -23.698000  *   12.795000  *
    42       H(    42  C     )    1.6570000  *  -23.765000  *   13.321000  *
    43       C(    43  C     )    1.6740000  *  -26.040000  *   14.246000  *
    44       H(    44  C     )    2.5810000  *  -26.484000  *   13.834000  *
    45       H(    45  C     )    1.9300000  *  -25.135000  *   14.796000  *
    46       H(    46  C     )    1.1940000  *  -26.752000  *   14.918000  *
    47       C(    47  C     )   -5.7480000  *  -27.417000  *   11.435000  *
    48       H(    48  C     )   -5.3670000  *  -27.655000  *   10.441000  *
    49       H(    49  C     )   -4.9520000  *  -27.546000  *   12.169000  *
    50       H(    50  C     )   -6.5750000  *  -28.084000  *   11.677000  *
    51       C(    51  C     )   -7.6740000  *  -25.904000  *   11.979000  *
    52       H(    52  C     )   -8.1750000  *  -26.851000  *   11.776000  *
    53       H(    53  C     )   -7.6640000  *  -25.722000  *   13.053000  *
    54       H(    54  C     )   -8.2060000  *  -25.096000  *   11.478000  *
 


          CARTESIAN COORDINATES 

    NO.       ATOM         X         Y         Z

     1         C        0.7160  -25.6910   13.1050
     2         C       -0.7290  -25.9340   13.5380
     3         C       -1.6770  -25.5850   12.4140
     4         C       -1.2940  -25.7590   11.1340
     5         C       -2.2420  -25.4150   10.0120
     6         C       -3.6610  -25.3370   10.5180
     7         C       -3.8990  -25.1890   11.8360
     8         C       -5.3210  -25.1190   12.3420
     9         C       -6.2360  -25.9670   11.4600
    10         C       -6.1530  -25.3600   10.0580
    11         C       -4.7220  -25.4180    9.5970
    12         O       -4.4790  -25.5370    8.4140
    13         O       -2.8910  -25.0980   12.7170
    14         C       -0.0180  -26.2610   10.8240
    15         O        0.2990  -26.4110    9.6610
    16         C        0.9610  -26.6160   11.9100
    17         H       -0.8560  -26.9840   13.8030
    18         H       -0.9550  -25.3140   14.4050
    19         H       -1.9590  -24.4530    9.5860
    20         H       -5.3570  -25.4920   13.3660
    21         H       -5.6590  -24.0830   12.3230
    22         H       -6.7830  -25.9290    9.3730
    23         H       -6.4870  -24.3230   10.0870
    24         H        1.9790  -26.4820   11.5440
    25         H        0.8140  -27.6520   12.2120
    26         C       -2.1530  -26.4760    8.9460
    27         C       -2.4520  -27.7950    9.2540
    28         C       -2.3690  -28.7720    8.2730
    29         C       -1.9880  -28.4260    6.9850
    30         H       -2.6020  -29.7990    8.5110
    31         C       -1.6890  -27.1060    6.6820
    32         C       -1.7780  -26.1340    7.6610
    33         H       -1.3910  -26.8360    5.6790
    34         H       -1.5460  -25.1060    7.4220
    35         O       -2.8260  -28.1310   10.5170
    36         H       -2.6070  -29.0400   10.7640
    37         O       -1.9060  -29.3810    6.0220
    38         H       -1.5200  -30.2150    6.3260
    39         C        0.9030  -24.2320   12.6870
    40         H        1.2250  -24.1900   11.6460
    41         H       -0.0420  -23.6980   12.7950
    42         H        1.6570  -23.7650   13.3210
    43         C        1.6740  -26.0400   14.2460
    44         H        2.5810  -26.4840   13.8340
    45         H        1.9300  -25.1350   14.7960
    46         H        1.1940  -26.7520   14.9180
    47         C       -5.7480  -27.4170   11.4350
    48         H       -5.3670  -27.6550   10.4410
    49         H       -4.9520  -27.5460   12.1690
    50         H       -6.5750  -28.0840   11.6770
    51         C       -7.6740  -25.9040   11.9790
    52         H       -8.1750  -26.8510   11.7760
    53         H       -7.6640  -25.7220   13.0530
    54         H       -8.2060  -25.0960   11.4780

 General Reference for PM6:
 "Optimization of Parameters for Semiempirical Methods V: Modification of NDDO Approximations
 and Application to 70 Elements", J. J. P. Stewart, J. Mol. Mod., 13, 1173-1213 (2007)
 URL: http://www.springerlink.com/content/ar33482301010477/fulltext.pdf

           Empirical Formula: C23 H26 O5  =    54 atoms



      MOLECULAR POINT GROUP   :   C1  
 
   NUMBER AND TYPES OF BONDS IDENTIFIED
 
         SIGMA BONDS               57
         LONE PAIRS                10
         NORMAL PI BONDS            6
         AROMATIC RING PI BONDS     1
 
  SCF CRITERION =    0.1000E-02


          HEAT OF FORMATION =    -182.126250 KCALS/MOLE


          INTERNAL COORDINATE DERIVATIVES

   NUMBER  ATOM       BOND         ANGLE      DIHEDRAL

     1       C
     2       C     10.104771
     3       C      7.680512     0.953504
     4       C    -28.907170   -19.737651    19.052420
     5       C     40.176402    17.987071   -23.968774
     6       C    -46.233160   -13.194766    27.703588
     7       C     -3.199523     1.959061   -13.058776
     8       C     32.823106    38.888860    20.880668
     9       C    -32.683913   -39.088724    -6.654717
    10       C     29.710451    25.534621     4.665510
    11       C    -11.326229    -2.533174    -5.306463
    12       O      7.624873     5.632683    -6.375958
    13       O    -20.923899   -41.028378    -7.826154
    14       C      3.981921   -39.519363   -12.830996
    15       O    -32.994941    56.495183    38.484819
    16       C     39.841831     5.441402   -28.084232
    17       H     31.516324   -16.540803   -17.976933
    18       H     -4.293609    -8.515778     7.440650
    19       H    -10.657267     8.794734    -8.991400
    20       H     -8.729947    12.048045     8.802080
    21       H      9.334351    -9.352334    15.991682
    22       H     -6.337132    13.558120     6.891563
    23       H     -2.462292    -0.141725    16.679268
    24       H     -6.838325   -11.584314    -3.167626
    25       H     -3.295405   -11.100346     9.729094
    26       C     12.347921     1.931271    -7.248097
    27       C      0.872094     5.971052   -14.079426
    28       C     -4.437505     7.204486    27.213202
    29       C     -2.925727     5.447437   -19.619017
    30       H     -9.704375    10.460035   -24.937812
    31       C     -1.752953    13.225046     7.646017
    32       C     -2.684535     3.453939    -6.177955
    33       H     14.155214   -27.183806   -10.127257
    34       H      4.067591    -7.098340     4.981521
    35       O      3.952473    -5.292015    -1.596615
    36       H      3.816279    -3.652336     6.285611
    37       O     -5.904676     3.966425    19.083699
    38       H     -2.566053     5.489266   -13.940789
    39       C      7.409175   -25.603386    -3.881279
    40       H     -2.035354    10.295970   -10.395768
    41       H      0.273742     1.238328    -1.171148
    42       H      4.990191    -4.680070     8.809249
    43       C      4.062892    -4.449393     9.522354
    44       H      3.949631    -3.582888     7.747519
    45       H     -5.670550    -5.646643    -3.351089
    46       H      4.384333     7.210656     0.180628
    47       C      2.165459     8.346467     2.230701
    48       H      2.545746     9.120036    -1.414698
    49       H     -4.006598    -0.032891     2.633114
    50       H      2.517785     5.005049   -10.844573
    51       C      1.774633     4.344707    -9.904115
    52       H      0.026705     3.228975    -8.717818
    53       H      7.880899    -0.190399     2.554445
    54       H     -8.278289    -1.240434     0.109948


          GRADIENT NORM = 194.50761



 ** GRADIENT IS TOO LARGE TO ALLOW FORCE MATRIX TO BE CALCULATED, (LIMIT=10) **



 EITHER ADD 'LET' OR REDUCE GRADIENT
 USING 'TS' OR OTHER GEOMETRY OPTIMIZER



 TOTAL CPU TIME:             1.38 SECONDS

 == MOPAC DONE ==
