 *******************************************************************************
 ** Site#:  958            For non-commercial use only         Version 9.015L **
 *******************************************************************************
 ** Cite this work as: MOPAC2009, James J. P. Stewart, Stewart Computational  **
 ** Chemistry, Version 9.015L web: HTTP://OpenMOPAC.net                       **
 *******************************************************************************
 **                                                                           **
 **                                MOPAC2009                                  **
 **                                                                           **
 *******************************************************************************

                            PM6 CALCULATION RESULTS


 *******************************************************************************
 *  CALCULATION DONE:                                Wed Sep  7 18:46:25 2011  *
 *  PM6      - The PM6 Hamiltonian to be used
 *  PDBOUT   - PRINT GEOMETY IN PDB FORMAT
 *  MOZYME   - USE LOCALIZED M.O.s IN SOLVING THE SCF EQUATIONS
 *
 *
 *
 *                 CHARGE ON SYSTEM =     0
 *
 *
 *
 *  EPS= 78.400
 *  RSOLV=  1.300
 *  LET      - OVERRIDE SOME SAFETY CHECKS
 *  XYZ      - CARTESIAN COORDINATE SYSTEM TO BE USED
 *  LBFGS    - USE THE LBFGS GEOMETRY OPTIMIZER
 *  1SCF     - DO 1 SCF AND THEN STOP 
 *  T=       - A TIME OF  0.3E+08 SECONDS REQUESTED
 *  DUMP=N   - RESTART FILE WRITTEN EVERY  4320.000 SECONDS
 *  DDMIN=   - MINIMUM TRUST RADIUS  0.000 ANG/RAD
 *  GNORM=   - EXIT WHEN GRADIENT NORM DROPS BELOW .150    
 *  RELSCF   - DEFAULT SCF CRITERION MULTIPLIED BY   0.100    
 *             (DEFAULT SCFCRT= 0.00010)
 *  MULLIK   - THE MULLIKEN ANALYSIS TO BE PERFORMED
 *******************************************************************************
 PM6 T=31440867 DUMP=4320 XYZ EPS=78.40 RSOLV=1.30 MULLIK LBFGS MOZYME PDBOUT +
 CHARGE=0 RELSCF=0.1 LET DDMIN=0.0 GNORM=0.15 1SCF
 SJ000002349-1_T001S001I001C02_003: Geometry optimization step

   ATOM   CHEMICAL          X               Y              Z
  NUMBER   SYMBOL      (ANGSTROMS)     (ANGSTROMS)    (ANGSTROMS)
 
     1       C         -4.4310000  *  -25.371000  *   12.985000  *
     2       C         -5.7810000  *  -26.060000  *   12.779000  *
     3       C         -5.9540000  *  -26.420000  *   11.322000  *
     4       C         -5.3990000  *  -25.659000  *   10.361000  *
     5       C         -5.5880000  *  -26.022000  *    8.909000  *
     6       C         -6.7740000  *  -26.940000  *    8.745000  *
     7       C         -7.2440000  *  -27.628000  *    9.802000  *
     8       C         -8.4310000  *  -28.548000  *    9.650000  *
     9       C         -9.3650000  *  -28.012000  *    8.562000  *
    10       C         -8.5690000  *  -27.938000  *    7.256000  *
    11       C         -7.3700000  *  -27.055000  *    7.475000  *
    12       O         -6.9090000  *  -26.431000  *    6.541000  *
    13       O         -6.6670000  *  -27.516000  *   11.011000  *
    14       C         -4.6360000  *  -24.521000  *   10.681000  *
    15       O         -4.1560000  *  -23.854000  *    9.786000  *
    16       C         -4.4060000  *  -24.115000  *   12.110000  *
    17       H         -5.8220000  *  -26.966000  *   13.384000  *
    18       H         -6.5820000  *  -25.386000  *   13.083000  *
    19       H         -5.7540000  *  -25.113000  *    8.330000  *
    20       H         -8.0850000  *  -29.543000  *    9.372000  *
    21       H         -8.9710000  *  -28.603000  *   10.595000  *
    22       H         -8.2400000  *  -28.937000  *    6.969000  *
    23       H         -9.1940000  *  -27.517000  *    6.469000  *
    24       H         -5.1940000  *  -23.431000  *   12.428000  *
    25       H         -3.4370000  *  -23.625000  *   12.201000  *
    26       C         -4.3490000  *  -26.715000  *    8.404000  *
    27       C         -3.7840000  *  -26.332000  *    7.196000  *
    28       C         -2.6430000  *  -26.970000  *    6.731000  *
    29       C         -2.0720000  *  -27.990000  *    7.475000  *
    30       H         -2.2030000  *  -26.673000  *    5.792000  *
    31       C         -2.6410000  *  -28.370000  *    8.683000  *
    32       C         -3.7730000  *  -27.729000  *    9.146000  *
    33       H         -2.1960000  *  -29.165000  *    9.263000  *
    34       H         -4.2140000  *  -28.026000  *   10.086000  *
    35       O         -4.3470000  *  -25.331000  *    6.469000  *
    36       H         -5.2660000  *  -25.496000  *    6.220000  *
    37       O         -0.9540000  *  -28.617000  *    7.022000  *
    38       H         -0.8090000  *  -29.490000  *    7.412000  *
    39       C         -4.2680000  *  -24.982000  *   14.456000  *
    40       H         -3.2180000  *  -25.066000  *   14.739000  *
    41       H         -4.6020000  *  -23.954000  *   14.599000  *
    42       H         -4.8660000  *  -25.649000  *   15.076000  *
    43       C         -3.3000000  *  -26.315000  *   12.572000  *
    44       H         -2.6270000  *  -26.468000  *   13.415000  *
    45       H         -3.7200000  *  -27.273000  *   12.263000  *
    46       H         -2.7470000  *  -25.878000  *   11.741000  *
    47       C        -10.5540000  *  -28.958000  *    8.390000  *
    48       H        -11.2130000  *  -28.575000  *    7.611000  *
    49       H        -10.1930000  *  -29.948000  *    8.106000  *
    50       H        -11.1020000  *  -29.028000  *    9.329000  *
    51       C         -9.8630000  *  -26.619000  *    8.948000  *
    52       H        -10.9510000  *  -26.630000  *    9.024000  *
    53       H         -9.4360000  *  -26.334000  *    9.909000  *
    54       H         -9.5590000  *  -25.900000  *    8.188000  *
 


          CARTESIAN COORDINATES 

    NO.       ATOM         X         Y         Z

     1         C       -4.4310  -25.3710   12.9850
     2         C       -5.7810  -26.0600   12.7790
     3         C       -5.9540  -26.4200   11.3220
     4         C       -5.3990  -25.6590   10.3610
     5         C       -5.5880  -26.0220    8.9090
     6         C       -6.7740  -26.9400    8.7450
     7         C       -7.2440  -27.6280    9.8020
     8         C       -8.4310  -28.5480    9.6500
     9         C       -9.3650  -28.0120    8.5620
    10         C       -8.5690  -27.9380    7.2560
    11         C       -7.3700  -27.0550    7.4750
    12         O       -6.9090  -26.4310    6.5410
    13         O       -6.6670  -27.5160   11.0110
    14         C       -4.6360  -24.5210   10.6810
    15         O       -4.1560  -23.8540    9.7860
    16         C       -4.4060  -24.1150   12.1100
    17         H       -5.8220  -26.9660   13.3840
    18         H       -6.5820  -25.3860   13.0830
    19         H       -5.7540  -25.1130    8.3300
    20         H       -8.0850  -29.5430    9.3720
    21         H       -8.9710  -28.6030   10.5950
    22         H       -8.2400  -28.9370    6.9690
    23         H       -9.1940  -27.5170    6.4690
    24         H       -5.1940  -23.4310   12.4280
    25         H       -3.4370  -23.6250   12.2010
    26         C       -4.3490  -26.7150    8.4040
    27         C       -3.7840  -26.3320    7.1960
    28         C       -2.6430  -26.9700    6.7310
    29         C       -2.0720  -27.9900    7.4750
    30         H       -2.2030  -26.6730    5.7920
    31         C       -2.6410  -28.3700    8.6830
    32         C       -3.7730  -27.7290    9.1460
    33         H       -2.1960  -29.1650    9.2630
    34         H       -4.2140  -28.0260   10.0860
    35         O       -4.3470  -25.3310    6.4690
    36         H       -5.2660  -25.4960    6.2200
    37         O       -0.9540  -28.6170    7.0220
    38         H       -0.8090  -29.4900    7.4120
    39         C       -4.2680  -24.9820   14.4560
    40         H       -3.2180  -25.0660   14.7390
    41         H       -4.6020  -23.9540   14.5990
    42         H       -4.8660  -25.6490   15.0760
    43         C       -3.3000  -26.3150   12.5720
    44         H       -2.6270  -26.4680   13.4150
    45         H       -3.7200  -27.2730   12.2630
    46         H       -2.7470  -25.8780   11.7410
    47         C      -10.5540  -28.9580    8.3900
    48         H      -11.2130  -28.5750    7.6110
    49         H      -10.1930  -29.9480    8.1060
    50         H      -11.1020  -29.0280    9.3290
    51         C       -9.8630  -26.6190    8.9480
    52         H      -10.9510  -26.6300    9.0240
    53         H       -9.4360  -26.3340    9.9090
    54         H       -9.5590  -25.9000    8.1880

 General Reference for PM6:
 "Optimization of Parameters for Semiempirical Methods V: Modification of NDDO Approximations
 and Application to 70 Elements", J. J. P. Stewart, J. Mol. Mod., 13, 1173-1213 (2007)
 URL: http://www.springerlink.com/content/ar33482301010477/fulltext.pdf

           Empirical Formula: C23 H26 O5  =    54 atoms



      MOLECULAR POINT GROUP   :   C1  
 
   NUMBER AND TYPES OF BONDS IDENTIFIED
 
         SIGMA BONDS               57
         LONE PAIRS                10
         NORMAL PI BONDS            6
         AROMATIC RING PI BONDS     1
 

                  Ramachandran Angles
              Residue    phi    psi  omega

  
  SCF CRITERION =    0.1000E-02

 -------------------------------------------------------------------------------
 PM6 T=31440867 DUMP=4320 XYZ EPS=78.40 RSOLV=1.30 MULLIK LBFGS MOZYME PDBOUT +
 CHARGE=0 RELSCF=0.1 LET DDMIN=0.0 GNORM=0.15 1SCF
 SJ000002349-1_T001S001I001C02_003: Geometry optimization step



     1SCF WAS SPECIFIED, SO BFGS WAS NOT USED                 
     SCF FIELD WAS ACHIEVED                                   


                               PM6     CALCULATION
                                                       MOPAC2009 (Version: 9.015L)
                                                       Wed Sep  7 18:46:26 2011




          FINAL HEAT OF FORMATION =       -195.08863 KCAL =    -816.25083 KJ
          VAN DER WAALS AREA      =        362.04 SQUARE ANGSTROMS


          TOTAL ENERGY            =      -4642.32160 EV
          ELECTRONIC ENERGY       =     -41797.15998 EV
          CORE-CORE REPULSION     =      37154.83838 EV
          DIELECTRIC ENERGY       =         -1.42572 EV
          COSMO AREA              =        362.04 SQUARE ANGSTROMS
          COSMO VOLUME            =        448.89 CUBIC ANGSTROMS

          NO. OF FILLED LEVELS    =         74
          MOLECULAR WEIGHT        =        382.455

          MOLECULAR DIMENSIONS (Angstroms)

            Atom       Atom       Distance
            H    52    H    38    10.66013
            H    41    H    49    10.09443
            H    42    O    35     6.40555


          SCF CALCULATIONS        =          2
          COMPUTATION TIME        =          0.577 SECONDS




   ATOM           CHEMICAL             X               Y              Z
  NUMBER           SYMBOL         (ANGSTROMS)     (ANGSTROMS)    (ANGSTROMS)
 
     1       C(     1  C     )   -4.4310000  *  -25.371000  *   12.985000  *
     2       C(     2  C     )   -5.7810000  *  -26.060000  *   12.779000  *
     3       C(     3  C     )   -5.9540000  *  -26.420000  *   11.322000  *
     4       C(     4  C     )   -5.3990000  *  -25.659000  *   10.361000  *
     5       C(     5  C     )   -5.5880000  *  -26.022000  *    8.909000  *
     6       C(     6  C     )   -6.7740000  *  -26.940000  *    8.745000  *
     7       C(     7  C     )   -7.2440000  *  -27.628000  *    9.802000  *
     8       C(     8  C     )   -8.4310000  *  -28.548000  *    9.650000  *
     9       C(     9  C     )   -9.3650000  *  -28.012000  *    8.562000  *
    10       C(    10  C     )   -8.5690000  *  -27.938000  *    7.256000  *
    11       C(    11  C     )   -7.3700000  *  -27.055000  *    7.475000  *
    12       O(    12  O     )   -6.9090000  *  -26.431000  *    6.541000  *
    13       O(    13  O     )   -6.6670000  *  -27.516000  *   11.011000  *
    14       C(    14  C     )   -4.6360000  *  -24.521000  *   10.681000  *
    15       O(    15  O     )   -4.1560000  *  -23.854000  *    9.786000  *
    16       C(    16  C     )   -4.4060000  *  -24.115000  *   12.110000  *
    17       H(    17  C     )   -5.8220000  *  -26.966000  *   13.384000  *
    18       H(    18  C     )   -6.5820000  *  -25.386000  *   13.083000  *
    19       H(    19  C     )   -5.7540000  *  -25.113000  *    8.330000  *
    20       H(    20  C     )   -8.0850000  *  -29.543000  *    9.372000  *
    21       H(    21  C     )   -8.9710000  *  -28.603000  *   10.595000  *
    22       H(    22  C     )   -8.2400000  *  -28.937000  *    6.969000  *
    23       H(    23  C     )   -9.1940000  *  -27.517000  *    6.469000  *
    24       H(    24  C     )   -5.1940000  *  -23.431000  *   12.428000  *
    25       H(    25  C     )   -3.4370000  *  -23.625000  *   12.201000  *
    26       C(    26  C     )   -4.3490000  *  -26.715000  *    8.404000  *
    27       C(    27  C     )   -3.7840000  *  -26.332000  *    7.196000  *
    28       C(    28  C     )   -2.6430000  *  -26.970000  *    6.731000  *
    29       C(    29  C     )   -2.0720000  *  -27.990000  *    7.475000  *
    30       H(    30  C     )   -2.2030000  *  -26.673000  *    5.792000  *
    31       C(    31  C     )   -2.6410000  *  -28.370000  *    8.683000  *
    32       C(    32  C     )   -3.7730000  *  -27.729000  *    9.146000  *
    33       H(    33  C     )   -2.1960000  *  -29.165000  *    9.263000  *
    34       H(    34  C     )   -4.2140000  *  -28.026000  *   10.086000  *
    35       O(    35  O     )   -4.3470000  *  -25.331000  *    6.469000  *
    36       H(    36  O     )   -5.2660000  *  -25.496000  *    6.220000  *
    37       O(    37  O     )   -0.9540000  *  -28.617000  *    7.022000  *
    38       H(    38  O     )   -0.8090000  *  -29.490000  *    7.412000  *
    39       C(    39  C     )   -4.2680000  *  -24.982000  *   14.456000  *
    40       H(    40  C     )   -3.2180000  *  -25.066000  *   14.739000  *
    41       H(    41  C     )   -4.6020000  *  -23.954000  *   14.599000  *
    42       H(    42  C     )   -4.8660000  *  -25.649000  *   15.076000  *
    43       C(    43  C     )   -3.3000000  *  -26.315000  *   12.572000  *
    44       H(    44  C     )   -2.6270000  *  -26.468000  *   13.415000  *
    45       H(    45  C     )   -3.7200000  *  -27.273000  *   12.263000  *
    46       H(    46  C     )   -2.7470000  *  -25.878000  *   11.741000  *
    47       C(    47  C     )  -10.5540000  *  -28.958000  *    8.390000  *
    48       H(    48  C     )  -11.2130000  *  -28.575000  *    7.611000  *
    49       H(    49  C     )  -10.1930000  *  -29.948000  *    8.106000  *
    50       H(    50  C     )  -11.1020000  *  -29.028000  *    9.329000  *
    51       C(    51  C     )   -9.8630000  *  -26.619000  *    8.948000  *
    52       H(    52  C     )  -10.9510000  *  -26.630000  *    9.024000  *
    53       H(    53  C     )   -9.4360000  *  -26.334000  *    9.909000  *
    54       H(    54  C     )   -9.5590000  *  -25.900000  *    8.188000  *

           Empirical Formula: C23 H26 O5  =    54 atoms



              NET ATOMIC CHARGES AND DIPOLE CONTRIBUTIONS

  ATOM NO.   TYPE          CHARGE      No. of ELECS.   s-Pop       p-Pop       
    1          C           0.286460        3.7135     1.06299     2.65055
    2          C          -0.420935        4.4209     1.10805     3.31288
    3          C           0.438751        3.5612     1.10183     2.45942
    4          C          -0.488857        4.4889     1.11050     3.37836
    5          C           0.142905        3.8571     1.04882     2.80828
    6          C          -0.501683        4.5017     1.11062     3.39106
    7          C           0.454603        3.5454     1.10128     2.44411
    8          C          -0.425748        4.4257     1.10756     3.31819
    9          C           0.287749        3.7123     1.06315     2.64910
   10          C          -0.527329        4.5273     1.11786     3.40947
   11          C           0.673923        3.3261     1.07581     2.25026
   12          O          -0.646790        6.6468     1.83938     4.80741
   13          O          -0.344840        6.3448     1.78444     4.56040
   14          C           0.670045        3.3300     1.07418     2.25577
   15          O          -0.636172        6.6362     1.84436     4.79181
   16          C          -0.531006        4.5310     1.11847     3.41254
   17          H           0.199667        0.8003     0.80033
   18          H           0.207965        0.7920     0.79203
   19          H           0.149591        0.8504     0.85041
   20          H           0.208173        0.7918     0.79183
   21          H           0.200521        0.7995     0.79948
   22          H           0.210190        0.7898     0.78981
   23          H           0.204600        0.7954     0.79540
   24          H           0.208418        0.7916     0.79158
   25          H           0.203591        0.7964     0.79641
   26          C          -0.262196        4.2622     1.09782     3.16437
   27          C           0.416319        3.5837     1.05831     2.52537
   28          C          -0.470141        4.4701     1.10045     3.36969
   29          C           0.417052        3.5829     1.06022     2.52273
   30          H           0.206809        0.7932     0.79319
   31          C          -0.435806        4.4358     1.10701     3.32879
   32          C           0.041656        3.9583     1.09531     2.86304
   33          H           0.193240        0.8068     0.80676
   34          H           0.151295        0.8487     0.84871
   35          O          -0.563740        6.5637     1.77499     4.78875
   36          H           0.375764        0.6242     0.62424
   37          O          -0.521380        6.5214     1.78127     4.74011
   38          H           0.369253        0.6307     0.63075
   39          C          -0.547829        4.5478     1.09631     3.45152
   40          H           0.174878        0.8251     0.82512
   41          H           0.172119        0.8279     0.82788
   42          H           0.171469        0.8285     0.82853
   43          C          -0.558481        4.5585     1.09795     3.46053
   44          H           0.176276        0.8237     0.82372
   45          H           0.168611        0.8314     0.83139
   46          H           0.169943        0.8301     0.83006
   47          C          -0.543585        4.5436     1.09490     3.44868
   48          H           0.173943        0.8261     0.82606
   49          H           0.170395        0.8296     0.82961
   50          H           0.172406        0.8276     0.82759
   51          C          -0.560581        4.5606     1.09700     3.46358
   52          H           0.177438        0.8226     0.82256
   53          H           0.170149        0.8299     0.82985
   54          H           0.170933        0.8291     0.82907


          CARTESIAN COORDINATES 

    NO.       ATOM               X         Y         Z

     1         C                 -4.4310  -25.3710   12.9850
     2         C                 -5.7810  -26.0600   12.7790
     3         C                 -5.9540  -26.4200   11.3220
     4         C                 -5.3990  -25.6590   10.3610
     5         C                 -5.5880  -26.0220    8.9090
     6         C                 -6.7740  -26.9400    8.7450
     7         C                 -7.2440  -27.6280    9.8020
     8         C                 -8.4310  -28.5480    9.6500
     9         C                 -9.3650  -28.0120    8.5620
    10         C                 -8.5690  -27.9380    7.2560
    11         C                 -7.3700  -27.0550    7.4750
    12         O                 -6.9090  -26.4310    6.5410
    13         O                 -6.6670  -27.5160   11.0110
    14         C                 -4.6360  -24.5210   10.6810
    15         O                 -4.1560  -23.8540    9.7860
    16         C                 -4.4060  -24.1150   12.1100
    17         H                 -5.8220  -26.9660   13.3840
    18         H                 -6.5820  -25.3860   13.0830
    19         H                 -5.7540  -25.1130    8.3300
    20         H                 -8.0850  -29.5430    9.3720
    21         H                 -8.9710  -28.6030   10.5950
    22         H                 -8.2400  -28.9370    6.9690
    23         H                 -9.1940  -27.5170    6.4690
    24         H                 -5.1940  -23.4310   12.4280
    25         H                 -3.4370  -23.6250   12.2010
    26         C                 -4.3490  -26.7150    8.4040
    27         C                 -3.7840  -26.3320    7.1960
    28         C                 -2.6430  -26.9700    6.7310
    29         C                 -2.0720  -27.9900    7.4750
    30         H                 -2.2030  -26.6730    5.7920
    31         C                 -2.6410  -28.3700    8.6830
    32         C                 -3.7730  -27.7290    9.1460
    33         H                 -2.1960  -29.1650    9.2630
    34         H                 -4.2140  -28.0260   10.0860
    35         O                 -4.3470  -25.3310    6.4690
    36         H                 -5.2660  -25.4960    6.2200
    37         O                 -0.9540  -28.6170    7.0220
    38         H                 -0.8090  -29.4900    7.4120
    39         C                 -4.2680  -24.9820   14.4560
    40         H                 -3.2180  -25.0660   14.7390
    41         H                 -4.6020  -23.9540   14.5990
    42         H                 -4.8660  -25.6490   15.0760
    43         C                 -3.3000  -26.3150   12.5720
    44         H                 -2.6270  -26.4680   13.4150
    45         H                 -3.7200  -27.2730   12.2630
    46         H                 -2.7470  -25.8780   11.7410
    47         C                -10.5540  -28.9580    8.3900
    48         H                -11.2130  -28.5750    7.6110
    49         H                -10.1930  -29.9480    8.1060
    50         H                -11.1020  -29.0280    9.3290
    51         C                 -9.8630  -26.6190    8.9480
    52         H                -10.9510  -26.6300    9.0240
    53         H                 -9.4360  -26.3340    9.9090
    54         H                 -9.5590  -25.9000    8.1880


          ATOMIC ORBITAL ELECTRON POPULATIONS

   1.06299   0.86852   0.87398   0.90804   1.10805   1.13641   1.17638   1.00010
   1.10183   0.76948   0.75368   0.93626   1.11050   1.19681   1.12832   1.05322
   1.04882   0.88364   1.00325   0.92139   1.11062   1.14469   1.18903   1.05734
   1.10128   0.82988   0.84651   0.76773   1.10756   1.03764   1.11529   1.16526
   1.06315   0.88672   0.91010   0.85228   1.11786   1.10057   1.16866   1.14024
   1.07581   0.75704   0.68509   0.80813   1.83938   1.69638   1.54669   1.56435
   1.78444   1.62485   1.48246   1.45309   1.07418   0.66595   0.75353   0.83629
   1.84436   1.56840   1.62184   1.60157   1.11847   1.21269   1.13306   1.06679
   0.80033   0.79203   0.85041   0.79183   0.79948   0.78981   0.79540   0.79158
   0.79641   1.09782   1.06087   1.07187   1.03163   1.05831   0.88052   0.78616
   0.85869   1.10045   1.11022   1.11133   1.14813   1.06022   0.77479   0.86367
   0.88426   0.79319   1.10701   1.09567   1.15725   1.07587   1.09531   0.93305
   0.91568   1.01430   0.80676   0.84871   1.77499   1.47239   1.55054   1.76581
   0.62424   1.78127   1.51893   1.47035   1.75082   0.63075   1.09631   1.19496
   1.18635   1.07021   0.82512   0.82788   0.82853   1.09795   1.12767   1.14383
   1.18903   0.82372   0.83139   0.83006   1.09490   1.11282   1.14269   1.19317
   0.82606   0.82961   0.82759   1.09700   1.19051   1.08848   1.18460   0.82256
   0.82985   0.82907

           MULLIKEN POPULATION ANALYSIS



        MULLIKEN POPULATIONS AND CHARGES

      NO.  ATOM   POPULATION      CHARGE
        1    C     3.684466      0.315534
        2    C     4.540524     -0.540524
        3    C     3.538316      0.461684
        4    C     4.539706     -0.539706
        5    C     3.851733      0.148267
        6    C     4.553141     -0.553141
        7    C     3.520970      0.479030
        8    C     4.546160     -0.546160
        9    C     3.683526      0.316474
       10    C     4.658764     -0.658764
       11    C     3.274040      0.725960
       12    O     6.675186     -0.675186
       13    O     6.391674     -0.391674
       14    C     3.277157      0.722843
       15    O     6.661490     -0.661490
       16    C     4.662612     -0.662612
       17    H     0.743302      0.256698
       18    H     0.734590      0.265410
       19    H     0.802586      0.197414
       20    H     0.734151      0.265849
       21    H     0.742060      0.257940
       22    H     0.732737      0.267263
       23    H     0.737551      0.262449
       24    H     0.735195      0.264805
       25    H     0.738754      0.261246
       26    C     4.287926     -0.287926
       27    C     3.555754      0.444246
       28    C     4.544232     -0.544232
       29    C     3.559131      0.440869
       30    H     0.728307      0.271693
       31    C     4.512244     -0.512244
       32    C     3.984076      0.015924
       33    H     0.746247      0.253753
       34    H     0.799931      0.200069
       35    O     6.615030     -0.615030
       36    H     0.587796      0.412204
       37    O     6.572957     -0.572957
       38    H     0.596064      0.403936
       39    C     4.694506     -0.694506
       40    H     0.776870      0.223130
       41    H     0.779476      0.220524
       42    H     0.780503      0.219497
       43    C     4.704024     -0.704024
       44    H     0.774816      0.225184
       45    H     0.784542      0.215458
       46    H     0.782548      0.217452
       47    C     4.690840     -0.690840
       48    H     0.777297      0.222703
       49    H     0.781347      0.218653
       50    H     0.778987      0.221013
       51    C     4.707562     -0.707562
       52    H     0.773113      0.226887
       53    H     0.782230      0.217770
       54    H     0.781256      0.218744



 TOTAL CPU TIME:             0.61 SECONDS

 == MOPAC DONE ==
 *******************************************************************************
 ** Site#:  958            For non-commercial use only         Version 9.015L **
 *******************************************************************************
 ** Cite this work as: MOPAC2009, James J. P. Stewart, Stewart Computational  **
 ** Chemistry, Version 9.015L web: HTTP://OpenMOPAC.net                       **
 *******************************************************************************
 **                                                                           **
 **                                MOPAC2009                                  **
 **                                                                           **
 *******************************************************************************

                            PM6 CALCULATION RESULTS


 *******************************************************************************
 *  CALCULATION DONE:                                Wed Sep  7 18:46:26 2011  *
 *  PM6      - The PM6 Hamiltonian to be used
 *  GEO-OK   - OVERRIDE INTERATOMIC DISTANCE CHECK
 *  MOZYME   - USE LOCALIZED M.O.s IN SOLVING THE SCF EQUATIONS
 *
 *
 *
 *                 CHARGE ON SYSTEM =     0
 *
 *
 *
 *  EPS= 78.400
 *  RSOLV=  1.300
 *  OLDGEO   - PREVIOUS GEOMETRY TO BE USED
 *  T=       - A TIME OF 172800.0 SECONDS REQUESTED
 *  DUMP=N   - RESTART FILE WRITTEN EVERY  4320.000 SECONDS
 *  RELSCF   - DEFAULT SCF CRITERION MULTIPLIED BY   0.100    
 *             (DEFAULT SCFCRT= 0.00010)
 *  THERMO   - THERMODYNAMIC QUANTITIES TO BE CALCULATED
 *******************************************************************************
 PM6 DUMP=4320 MOZYME RELSCF=0.1 THERMO EPS=78.40 RSOLV=1.30 +
 OLDGEO GEO-OK CHARGE=0
 SJ000002349-1_T001S001I001C02_003: Free energy calculation

   ATOM           CHEMICAL             X               Y              Z
  NUMBER           SYMBOL         (ANGSTROMS)     (ANGSTROMS)    (ANGSTROMS)
 
     1       C(     1  C     )   -4.4310000  *  -25.371000  *   12.985000  *
     2       C(     2  C     )   -5.7810000  *  -26.060000  *   12.779000  *
     3       C(     3  C     )   -5.9540000  *  -26.420000  *   11.322000  *
     4       C(     4  C     )   -5.3990000  *  -25.659000  *   10.361000  *
     5       C(     5  C     )   -5.5880000  *  -26.022000  *    8.909000  *
     6       C(     6  C     )   -6.7740000  *  -26.940000  *    8.745000  *
     7       C(     7  C     )   -7.2440000  *  -27.628000  *    9.802000  *
     8       C(     8  C     )   -8.4310000  *  -28.548000  *    9.650000  *
     9       C(     9  C     )   -9.3650000  *  -28.012000  *    8.562000  *
    10       C(    10  C     )   -8.5690000  *  -27.938000  *    7.256000  *
    11       C(    11  C     )   -7.3700000  *  -27.055000  *    7.475000  *
    12       O(    12  O     )   -6.9090000  *  -26.431000  *    6.541000  *
    13       O(    13  O     )   -6.6670000  *  -27.516000  *   11.011000  *
    14       C(    14  C     )   -4.6360000  *  -24.521000  *   10.681000  *
    15       O(    15  O     )   -4.1560000  *  -23.854000  *    9.786000  *
    16       C(    16  C     )   -4.4060000  *  -24.115000  *   12.110000  *
    17       H(    17  C     )   -5.8220000  *  -26.966000  *   13.384000  *
    18       H(    18  C     )   -6.5820000  *  -25.386000  *   13.083000  *
    19       H(    19  C     )   -5.7540000  *  -25.113000  *    8.330000  *
    20       H(    20  C     )   -8.0850000  *  -29.543000  *    9.372000  *
    21       H(    21  C     )   -8.9710000  *  -28.603000  *   10.595000  *
    22       H(    22  C     )   -8.2400000  *  -28.937000  *    6.969000  *
    23       H(    23  C     )   -9.1940000  *  -27.517000  *    6.469000  *
    24       H(    24  C     )   -5.1940000  *  -23.431000  *   12.428000  *
    25       H(    25  C     )   -3.4370000  *  -23.625000  *   12.201000  *
    26       C(    26  C     )   -4.3490000  *  -26.715000  *    8.404000  *
    27       C(    27  C     )   -3.7840000  *  -26.332000  *    7.196000  *
    28       C(    28  C     )   -2.6430000  *  -26.970000  *    6.731000  *
    29       C(    29  C     )   -2.0720000  *  -27.990000  *    7.475000  *
    30       H(    30  C     )   -2.2030000  *  -26.673000  *    5.792000  *
    31       C(    31  C     )   -2.6410000  *  -28.370000  *    8.683000  *
    32       C(    32  C     )   -3.7730000  *  -27.729000  *    9.146000  *
    33       H(    33  C     )   -2.1960000  *  -29.165000  *    9.263000  *
    34       H(    34  C     )   -4.2140000  *  -28.026000  *   10.086000  *
    35       O(    35  O     )   -4.3470000  *  -25.331000  *    6.469000  *
    36       H(    36  O     )   -5.2660000  *  -25.496000  *    6.220000  *
    37       O(    37  O     )   -0.9540000  *  -28.617000  *    7.022000  *
    38       H(    38  O     )   -0.8090000  *  -29.490000  *    7.412000  *
    39       C(    39  C     )   -4.2680000  *  -24.982000  *   14.456000  *
    40       H(    40  C     )   -3.2180000  *  -25.066000  *   14.739000  *
    41       H(    41  C     )   -4.6020000  *  -23.954000  *   14.599000  *
    42       H(    42  C     )   -4.8660000  *  -25.649000  *   15.076000  *
    43       C(    43  C     )   -3.3000000  *  -26.315000  *   12.572000  *
    44       H(    44  C     )   -2.6270000  *  -26.468000  *   13.415000  *
    45       H(    45  C     )   -3.7200000  *  -27.273000  *   12.263000  *
    46       H(    46  C     )   -2.7470000  *  -25.878000  *   11.741000  *
    47       C(    47  C     )  -10.5540000  *  -28.958000  *    8.390000  *
    48       H(    48  C     )  -11.2130000  *  -28.575000  *    7.611000  *
    49       H(    49  C     )  -10.1930000  *  -29.948000  *    8.106000  *
    50       H(    50  C     )  -11.1020000  *  -29.028000  *    9.329000  *
    51       C(    51  C     )   -9.8630000  *  -26.619000  *    8.948000  *
    52       H(    52  C     )  -10.9510000  *  -26.630000  *    9.024000  *
    53       H(    53  C     )   -9.4360000  *  -26.334000  *    9.909000  *
    54       H(    54  C     )   -9.5590000  *  -25.900000  *    8.188000  *
 


          CARTESIAN COORDINATES 

    NO.       ATOM         X         Y         Z

     1         C       -4.4310  -25.3710   12.9850
     2         C       -5.7810  -26.0600   12.7790
     3         C       -5.9540  -26.4200   11.3220
     4         C       -5.3990  -25.6590   10.3610
     5         C       -5.5880  -26.0220    8.9090
     6         C       -6.7740  -26.9400    8.7450
     7         C       -7.2440  -27.6280    9.8020
     8         C       -8.4310  -28.5480    9.6500
     9         C       -9.3650  -28.0120    8.5620
    10         C       -8.5690  -27.9380    7.2560
    11         C       -7.3700  -27.0550    7.4750
    12         O       -6.9090  -26.4310    6.5410
    13         O       -6.6670  -27.5160   11.0110
    14         C       -4.6360  -24.5210   10.6810
    15         O       -4.1560  -23.8540    9.7860
    16         C       -4.4060  -24.1150   12.1100
    17         H       -5.8220  -26.9660   13.3840
    18         H       -6.5820  -25.3860   13.0830
    19         H       -5.7540  -25.1130    8.3300
    20         H       -8.0850  -29.5430    9.3720
    21         H       -8.9710  -28.6030   10.5950
    22         H       -8.2400  -28.9370    6.9690
    23         H       -9.1940  -27.5170    6.4690
    24         H       -5.1940  -23.4310   12.4280
    25         H       -3.4370  -23.6250   12.2010
    26         C       -4.3490  -26.7150    8.4040
    27         C       -3.7840  -26.3320    7.1960
    28         C       -2.6430  -26.9700    6.7310
    29         C       -2.0720  -27.9900    7.4750
    30         H       -2.2030  -26.6730    5.7920
    31         C       -2.6410  -28.3700    8.6830
    32         C       -3.7730  -27.7290    9.1460
    33         H       -2.1960  -29.1650    9.2630
    34         H       -4.2140  -28.0260   10.0860
    35         O       -4.3470  -25.3310    6.4690
    36         H       -5.2660  -25.4960    6.2200
    37         O       -0.9540  -28.6170    7.0220
    38         H       -0.8090  -29.4900    7.4120
    39         C       -4.2680  -24.9820   14.4560
    40         H       -3.2180  -25.0660   14.7390
    41         H       -4.6020  -23.9540   14.5990
    42         H       -4.8660  -25.6490   15.0760
    43         C       -3.3000  -26.3150   12.5720
    44         H       -2.6270  -26.4680   13.4150
    45         H       -3.7200  -27.2730   12.2630
    46         H       -2.7470  -25.8780   11.7410
    47         C      -10.5540  -28.9580    8.3900
    48         H      -11.2130  -28.5750    7.6110
    49         H      -10.1930  -29.9480    8.1060
    50         H      -11.1020  -29.0280    9.3290
    51         C       -9.8630  -26.6190    8.9480
    52         H      -10.9510  -26.6300    9.0240
    53         H       -9.4360  -26.3340    9.9090
    54         H       -9.5590  -25.9000    8.1880

 General Reference for PM6:
 "Optimization of Parameters for Semiempirical Methods V: Modification of NDDO Approximations
 and Application to 70 Elements", J. J. P. Stewart, J. Mol. Mod., 13, 1173-1213 (2007)
 URL: http://www.springerlink.com/content/ar33482301010477/fulltext.pdf

           Empirical Formula: C23 H26 O5  =    54 atoms



      MOLECULAR POINT GROUP   :   C1  
 
   NUMBER AND TYPES OF BONDS IDENTIFIED
 
         SIGMA BONDS               57
         LONE PAIRS                10
         NORMAL PI BONDS            6
         AROMATIC RING PI BONDS     1
 
  SCF CRITERION =    0.1000E-02


          HEAT OF FORMATION =    -195.088748 KCALS/MOLE


          INTERNAL COORDINATE DERIVATIVES

   NUMBER  ATOM       BOND         ANGLE      DIHEDRAL

     1       C
     2       C     11.406276
     3       C      9.751504    -3.344548
     4       C    -24.798484   -23.528216   -14.089450
     5       C     37.949108    22.362748    20.290163
     6       C    -47.785798   -14.502128   -13.394270
     7       C      0.431320     3.554670   -10.719694
     8       C     31.663228    35.103486    -8.420770
     9       C    -33.250071   -33.057723     1.049714
    10       C     29.732504    18.759138    -2.119065
    11       C    -14.520012    -1.710298     4.524951
    12       O     12.773111     9.993506     3.066910
    13       O    -24.255962   -33.458468     4.380162
    14       C     11.865035   -40.968191    20.335499
    15       O    -34.496016    53.752722   -35.193664
    16       C     39.773600     5.001583    26.751751
    17       H     25.031263   -21.653047    20.512322
    18       H     -9.057786    -8.398451    -9.102297
    19       H     -8.955932    11.768951    -8.343581
    20       H    -10.407876     9.019915     9.386032
    21       H      3.742962    -7.245218    20.358044
    22       H     -2.812777    -0.115682   -17.067826
    23       H     -7.021889    13.923482    -6.873317
    24       H     -3.926664   -11.325104    -9.469937
    25       H     -7.730348   -12.432450     4.426411
    26       C      1.384634     4.869940    13.956983
    27       C     13.352544     2.208653     6.633306
    28       C    -12.797583    17.484746    14.308864
    29       C     -3.045780    -1.296662    -8.158064
    30       H     15.385077   -30.080564     8.310208
    31       C     -2.865558     5.885313    -3.933504
    32       C      3.054342    -8.583421     2.059384
    33       H     -0.360473    14.095352   -20.477969
    34       H     -1.134007     6.702269   -10.005194
    35       O      0.582536     3.159519    -7.829030
    36       H     -3.239051     8.118472    -3.433134
    37       O     26.217195   -17.867713     8.290540
    38       H    -21.698879     4.113893     6.007789
    39       C     10.023926   -21.223029    14.778910
    40       H     -1.869073     7.376660   -15.605047
    41       H     -5.165758    -5.133592     3.409439
    42       H      4.676067     7.273750     0.223728
    43       C      2.296042     9.033760     1.617945
    44       H      2.098731     9.174669    -1.611359
    45       H     -1.986803    -0.146115     0.841244
    46       H      4.092960    -2.936458    -8.375652
    47       C      4.032561    -3.709046    -9.917304
    48       H      5.019800    -4.974679    -8.990400
    49       H      8.168265    -0.866505    -4.103313
    50       H     -7.169704    -1.596319     0.482789
    51       C     -7.556299    -0.882582    -2.909610
    52       H     -7.490382     2.506943    -1.148764
    53       H     -1.698424    -0.455219    -1.582963
    54       H      0.547380     3.915950     8.842157


          GRADIENT NORM = 189.56917



 ** GRADIENT IS TOO LARGE TO ALLOW FORCE MATRIX TO BE CALCULATED, (LIMIT=10) **



 EITHER ADD 'LET' OR REDUCE GRADIENT
 USING 'TS' OR OTHER GEOMETRY OPTIMIZER



 TOTAL CPU TIME:             1.39 SECONDS

 == MOPAC DONE ==
