 *******************************************************************************
 ** Site#:  958            For non-commercial use only         Version 9.015L **
 *******************************************************************************
 ** Cite this work as: MOPAC2009, James J. P. Stewart, Stewart Computational  **
 ** Chemistry, Version 9.015L web: HTTP://OpenMOPAC.net                       **
 *******************************************************************************
 **                                                                           **
 **                                MOPAC2009                                  **
 **                                                                           **
 *******************************************************************************

                            PM6 CALCULATION RESULTS


 *******************************************************************************
 *  CALCULATION DONE:                                Wed Sep  7 00:48:23 2011  *
 *  PM6      - The PM6 Hamiltonian to be used
 *  PDBOUT   - PRINT GEOMETY IN PDB FORMAT
 *  MOZYME   - USE LOCALIZED M.O.s IN SOLVING THE SCF EQUATIONS
 *
 *
 *
 *                 CHARGE ON SYSTEM =     0
 *
 *
 *
 *  EPS= 78.400
 *  RSOLV=  1.300
 *  LET      - OVERRIDE SOME SAFETY CHECKS
 *  XYZ      - CARTESIAN COORDINATE SYSTEM TO BE USED
 *  LBFGS    - USE THE LBFGS GEOMETRY OPTIMIZER
 *  1SCF     - DO 1 SCF AND THEN STOP 
 *  T=       - A TIME OF  0.3E+08 SECONDS REQUESTED
 *  DUMP=N   - RESTART FILE WRITTEN EVERY  4320.000 SECONDS
 *  DDMIN=   - MINIMUM TRUST RADIUS  0.000 ANG/RAD
 *  GNORM=   - EXIT WHEN GRADIENT NORM DROPS BELOW .150    
 *  RELSCF   - DEFAULT SCF CRITERION MULTIPLIED BY   0.100    
 *             (DEFAULT SCFCRT= 0.00010)
 *  MULLIK   - THE MULLIKEN ANALYSIS TO BE PERFORMED
 *******************************************************************************
 PM6 T=31505549 DUMP=4320 XYZ EPS=78.40 RSOLV=1.30 MULLIK LBFGS MOZYME PDBOUT +
 CHARGE=-0 RELSCF=0.1 LET DDMIN=0.0 GNORM=0.15 1SCF
 SJ000001504-1_T001S001I001C01_002: Geometry optimization step

   ATOM   CHEMICAL          X               Y              Z
  NUMBER   SYMBOL      (ANGSTROMS)     (ANGSTROMS)    (ANGSTROMS)
 
     1       C         -5.5740000  *  -27.070000  *   11.339000  *
     2       C         -5.2140000  *  -25.803000  *   11.778000  *
     3       C         -6.1150000  *  -24.753000  *   11.672000  *
     4       C         -7.3680000  *  -24.971000  *   11.132000  *
     5       C         -7.7240000  *  -26.233000  *   10.697000  *
     6       C         -6.8260000  *  -27.280000  *   10.795000  *
     7       H         -5.8380000  *  -23.766000  *   12.013000  *
     8       H         -8.0690000  *  -24.154000  *   11.050000  *
     9       H         -8.7040000  *  -26.402000  *   10.275000  *
    10       H         -7.1070000  *  -28.266000  *   10.453000  *
    11       N         -3.9420000  *  -25.584000  *   12.326000  *
    12       C         -3.5680000  *  -25.917000  *   13.574000  *
    13       O         -4.2700000  *  -26.451000  *   14.407000  *
    14       C         -2.1550000  *  -25.520000  *   13.760000  *
    15       C         -1.7520000  *  -24.967000  *   12.603000  *
    16       H         -1.5610000  *  -25.650000  *   14.653000  *
    17       C         -2.9070000  *  -25.017000  *   11.680000  *
    18       H         -0.7720000  *  -24.566000  *   12.388000  *
    19       O         -2.9220000  *  -24.606000  *   10.538000  *
    20       N         -4.6160000  *  -28.192000  *   11.450000  *
    21       O         -4.8710000  *  -29.143000  *   12.167000  *
    22       O         -3.5700000  *  -28.164000  *   10.828000  *
 


          CARTESIAN COORDINATES 

    NO.       ATOM         X         Y         Z

     1         C       -5.5740  -27.0700   11.3390
     2         C       -5.2140  -25.8030   11.7780
     3         C       -6.1150  -24.7530   11.6720
     4         C       -7.3680  -24.9710   11.1320
     5         C       -7.7240  -26.2330   10.6970
     6         C       -6.8260  -27.2800   10.7950
     7         H       -5.8380  -23.7660   12.0130
     8         H       -8.0690  -24.1540   11.0500
     9         H       -8.7040  -26.4020   10.2750
    10         H       -7.1070  -28.2660   10.4530
    11         N       -3.9420  -25.5840   12.3260
    12         C       -3.5680  -25.9170   13.5740
    13         O       -4.2700  -26.4510   14.4070
    14         C       -2.1550  -25.5200   13.7600
    15         C       -1.7520  -24.9670   12.6030
    16         H       -1.5610  -25.6500   14.6530
    17         C       -2.9070  -25.0170   11.6800
    18         H       -0.7720  -24.5660   12.3880
    19         O       -2.9220  -24.6060   10.5380
    20         N       -4.6160  -28.1920   11.4500
    21         O       -4.8710  -29.1430   12.1670
    22         O       -3.5700  -28.1640   10.8280

 General Reference for PM6:
 "Optimization of Parameters for Semiempirical Methods V: Modification of NDDO Approximations
 and Application to 70 Elements", J. J. P. Stewart, J. Mol. Mod., 13, 1173-1213 (2007)
 URL: http://www.springerlink.com/content/ar33482301010477/fulltext.pdf

           Empirical Formula: C10 H6 N2 O4  =    22 atoms



      MOLECULAR POINT GROUP   :   C1  
 
   NUMBER AND TYPES OF BONDS IDENTIFIED
 
         SIGMA BONDS               24
         LONE PAIRS                10
         NORMAL PI BONDS            5
         AROMATIC RING PI BONDS     1
 

                  Ramachandran Angles
              Residue    phi    psi  omega

  
  SCF CRITERION =    0.1000E-02

 -------------------------------------------------------------------------------
 PM6 T=31505549 DUMP=4320 XYZ EPS=78.40 RSOLV=1.30 MULLIK LBFGS MOZYME PDBOUT +
 CHARGE=-0 RELSCF=0.1 LET DDMIN=0.0 GNORM=0.15 1SCF
 SJ000001504-1_T001S001I001C01_002: Geometry optimization step



     1SCF WAS SPECIFIED, SO BFGS WAS NOT USED                 
     SCF FIELD WAS ACHIEVED                                   


                               PM6     CALCULATION
                                                       MOPAC2009 (Version: 9.015L)
                                                       Wed Sep  7 00:48:23 2011




          FINAL HEAT OF FORMATION =        -14.47746 KCAL =     -60.57369 KJ
          VAN DER WAALS AREA      =        215.53 SQUARE ANGSTROMS


          TOTAL ENERGY            =      -2833.16804 EV
          ELECTRONIC ENERGY       =     -16269.67236 EV
          CORE-CORE REPULSION     =      13436.50431 EV
          DIELECTRIC ENERGY       =         -0.88022 EV
          COSMO AREA              =        215.53 SQUARE ANGSTROMS
          COSMO VOLUME            =        235.96 CUBIC ANGSTROMS

          NO. OF FILLED LEVELS    =         40
          MOLECULAR WEIGHT        =        218.168

          MOLECULAR DIMENSIONS (Angstroms)

            Atom       Atom       Distance
            H     9    H    18     8.41144
            H     8    O    21     5.61183
            O    13    O    19     4.00222


          SCF CALCULATIONS        =          2
          COMPUTATION TIME        =          0.195 SECONDS




   ATOM           CHEMICAL             X               Y              Z
  NUMBER           SYMBOL         (ANGSTROMS)     (ANGSTROMS)    (ANGSTROMS)
 
     1       C(     1  C     )   -5.5740000  *  -27.070000  *   11.339000  *
     2       C(     2  C     )   -5.2140000  *  -25.803000  *   11.778000  *
     3       C(     3  C     )   -6.1150000  *  -24.753000  *   11.672000  *
     4       C(     4  C     )   -7.3680000  *  -24.971000  *   11.132000  *
     5       C(     5  C     )   -7.7240000  *  -26.233000  *   10.697000  *
     6       C(     6  C     )   -6.8260000  *  -27.280000  *   10.795000  *
     7       H(     7  C     )   -5.8380000  *  -23.766000  *   12.013000  *
     8       H(     8  C     )   -8.0690000  *  -24.154000  *   11.050000  *
     9       H(     9  C     )   -8.7040000  *  -26.402000  *   10.275000  *
    10       H(    10  C     )   -7.1070000  *  -28.266000  *   10.453000  *
    11       N(    11  N     )   -3.9420000  *  -25.584000  *   12.326000  *
    12       C(    12  C     )   -3.5680000  *  -25.917000  *   13.574000  *
    13       O(    13  O     )   -4.2700000  *  -26.451000  *   14.407000  *
    14       C(    14  C     )   -2.1550000  *  -25.520000  *   13.760000  *
    15       C(    15  C     )   -1.7520000  *  -24.967000  *   12.603000  *
    16       H(    16  C     )   -1.5610000  *  -25.650000  *   14.653000  *
    17       C(    17  C     )   -2.9070000  *  -25.017000  *   11.680000  *
    18       H(    18  C     )   -0.7720000  *  -24.566000  *   12.388000  *
    19       O(    19  O     )   -2.9220000  *  -24.606000  *   10.538000  *
    20       N(    20  N     )   -4.6160000  *  -28.192000  *   11.450000  *
    21       O(    21  O     )   -4.8710000  *  -29.143000  *   12.167000  *
    22       O(    22  O     )   -3.5700000  *  -28.164000  *   10.828000  *

           Empirical Formula: C10 H6 N2 O4  =    22 atoms



              NET ATOMIC CHARGES AND DIPOLE CONTRIBUTIONS

  ATOM NO.   TYPE          CHARGE      No. of ELECS.   s-Pop       p-Pop       
    1          C          -0.219146        4.2191     1.10575     3.11339
    2          C           0.205246        3.7948     1.05069     2.74406
    3          C          -0.192763        4.1928     1.10999     3.08277
    4          C          -0.042860        4.0429     1.10727     2.93559
    5          C          -0.155452        4.1555     1.10637     3.04908
    6          C          -0.038698        4.0387     1.10195     2.93675
    7          H           0.201594        0.7984     0.79841
    8          H           0.182006        0.8180     0.81799
    9          H           0.190525        0.8095     0.80948
   10          H           0.189451        0.8105     0.81055
   11          N          -0.423892        5.4239     1.48196     3.94193
   12          C           0.604720        3.3953     1.06385     2.33143
   13          O          -0.513646        6.5136     1.85172     4.66192
   14          C          -0.212388        4.2124     1.14437     3.06802
   15          C          -0.211292        4.2113     1.14489     3.06640
   16          H           0.228615        0.7714     0.77138
   17          C           0.614438        3.3856     1.06280     2.32276
   18          H           0.228586        0.7714     0.77141
   19          O          -0.510908        6.5109     1.85206     4.65885
   20          N           0.863244        4.1368     1.29961     2.83715
   21          O          -0.490127        6.4901     1.91706     4.57306
   22          O          -0.497253        6.4973     1.91658     4.58067


          CARTESIAN COORDINATES 

    NO.       ATOM               X         Y         Z

     1         C                 -5.5740  -27.0700   11.3390
     2         C                 -5.2140  -25.8030   11.7780
     3         C                 -6.1150  -24.7530   11.6720
     4         C                 -7.3680  -24.9710   11.1320
     5         C                 -7.7240  -26.2330   10.6970
     6         C                 -6.8260  -27.2800   10.7950
     7         H                 -5.8380  -23.7660   12.0130
     8         H                 -8.0690  -24.1540   11.0500
     9         H                 -8.7040  -26.4020   10.2750
    10         H                 -7.1070  -28.2660   10.4530
    11         N                 -3.9420  -25.5840   12.3260
    12         C                 -3.5680  -25.9170   13.5740
    13         O                 -4.2700  -26.4510   14.4070
    14         C                 -2.1550  -25.5200   13.7600
    15         C                 -1.7520  -24.9670   12.6030
    16         H                 -1.5610  -25.6500   14.6530
    17         C                 -2.9070  -25.0170   11.6800
    18         H                 -0.7720  -24.5660   12.3880
    19         O                 -2.9220  -24.6060   10.5380
    20         N                 -4.6160  -28.1920   11.4500
    21         O                 -4.8710  -29.1430   12.1670
    22         O                 -3.5700  -28.1640   10.8280


          ATOMIC ORBITAL ELECTRON POPULATIONS

   1.10575   1.00168   0.94932   1.16239   1.05069   0.83716   0.93821   0.96869
   1.10999   0.98927   1.07463   1.01887   1.10727   0.99774   1.03422   0.90363
   1.10637   1.07387   0.97389   1.00133   1.10195   0.92753   1.07969   0.92953
   0.79841   0.81799   0.80948   0.81055   1.48196   1.16848   1.56330   1.21015
   1.06385   0.86287   0.70386   0.76471   1.85172   1.65011   1.47360   1.53822
   1.14437   1.00489   0.98040   1.08273   1.14489   1.08122   0.99467   0.99052
   0.77138   1.06280   0.82131   0.69223   0.80922   0.77141   1.85206   1.82775
   1.51055   1.32055   1.29961   0.95332   0.96407   0.91976   1.91706   1.80423
   1.34719   1.42164   1.91658   1.25168   1.83562   1.49337

           MULLIKEN POPULATION ANALYSIS



        MULLIKEN POPULATIONS AND CHARGES

      NO.  ATOM   POPULATION      CHARGE
        1    C     4.224531     -0.224531
        2    C     3.744131      0.255869
        3    C     4.249924     -0.249924
        4    C     4.092818     -0.092818
        5    C     4.214239     -0.214239
        6    C     4.077023     -0.077023
        7    H     0.735534      0.264466
        8    H     0.760118      0.239882
        9    H     0.749540      0.250460
       10    H     0.750766      0.249234
       11    N     5.591286     -0.591286
       12    C     3.323282      0.676718
       13    O     6.531941     -0.531941
       14    C     4.277264     -0.277264
       15    C     4.276624     -0.276624
       16    H     0.701621      0.298379
       17    C     3.312255      0.687745
       18    H     0.701692      0.298308
       19    O     6.529334     -0.529334
       20    N     4.186949      0.813051
       21    O     6.480885     -0.480885
       22    O     6.488243     -0.488243



 TOTAL CPU TIME:             0.20 SECONDS

 == MOPAC DONE ==
 *******************************************************************************
 ** Site#:  958            For non-commercial use only         Version 9.015L **
 *******************************************************************************
 ** Cite this work as: MOPAC2009, James J. P. Stewart, Stewart Computational  **
 ** Chemistry, Version 9.015L web: HTTP://OpenMOPAC.net                       **
 *******************************************************************************
 **                                                                           **
 **                                MOPAC2009                                  **
 **                                                                           **
 *******************************************************************************

                            PM6 CALCULATION RESULTS


 *******************************************************************************
 *  CALCULATION DONE:                                Wed Sep  7 00:48:23 2011  *
 *  PM6      - The PM6 Hamiltonian to be used
 *  GEO-OK   - OVERRIDE INTERATOMIC DISTANCE CHECK
 *  MOZYME   - USE LOCALIZED M.O.s IN SOLVING THE SCF EQUATIONS
 *
 *
 *
 *                 CHARGE ON SYSTEM =     0
 *
 *
 *
 *  EPS= 78.400
 *  RSOLV=  1.300
 *  OLDGEO   - PREVIOUS GEOMETRY TO BE USED
 *  T=       - A TIME OF 172800.0 SECONDS REQUESTED
 *  DUMP=N   - RESTART FILE WRITTEN EVERY  4320.000 SECONDS
 *  RELSCF   - DEFAULT SCF CRITERION MULTIPLIED BY   0.100    
 *             (DEFAULT SCFCRT= 0.00010)
 *  THERMO   - THERMODYNAMIC QUANTITIES TO BE CALCULATED
 *******************************************************************************
 PM6 DUMP=4320 MOZYME RELSCF=0.1 THERMO EPS=78.40 RSOLV=1.30 +
 OLDGEO GEO-OK CHARGE=-0
 SJ000001504-1_T001S001I001C01_002: Free energy calculation

   ATOM           CHEMICAL             X               Y              Z
  NUMBER           SYMBOL         (ANGSTROMS)     (ANGSTROMS)    (ANGSTROMS)
 
     1       C(     1  C     )   -5.5740000  *  -27.070000  *   11.339000  *
     2       C(     2  C     )   -5.2140000  *  -25.803000  *   11.778000  *
     3       C(     3  C     )   -6.1150000  *  -24.753000  *   11.672000  *
     4       C(     4  C     )   -7.3680000  *  -24.971000  *   11.132000  *
     5       C(     5  C     )   -7.7240000  *  -26.233000  *   10.697000  *
     6       C(     6  C     )   -6.8260000  *  -27.280000  *   10.795000  *
     7       H(     7  C     )   -5.8380000  *  -23.766000  *   12.013000  *
     8       H(     8  C     )   -8.0690000  *  -24.154000  *   11.050000  *
     9       H(     9  C     )   -8.7040000  *  -26.402000  *   10.275000  *
    10       H(    10  C     )   -7.1070000  *  -28.266000  *   10.453000  *
    11       N(    11  N     )   -3.9420000  *  -25.584000  *   12.326000  *
    12       C(    12  C     )   -3.5680000  *  -25.917000  *   13.574000  *
    13       O(    13  O     )   -4.2700000  *  -26.451000  *   14.407000  *
    14       C(    14  C     )   -2.1550000  *  -25.520000  *   13.760000  *
    15       C(    15  C     )   -1.7520000  *  -24.967000  *   12.603000  *
    16       H(    16  C     )   -1.5610000  *  -25.650000  *   14.653000  *
    17       C(    17  C     )   -2.9070000  *  -25.017000  *   11.680000  *
    18       H(    18  C     )   -0.7720000  *  -24.566000  *   12.388000  *
    19       O(    19  O     )   -2.9220000  *  -24.606000  *   10.538000  *
    20       N(    20  N     )   -4.6160000  *  -28.192000  *   11.450000  *
    21       O(    21  O     )   -4.8710000  *  -29.143000  *   12.167000  *
    22       O(    22  O     )   -3.5700000  *  -28.164000  *   10.828000  *
 


          CARTESIAN COORDINATES 

    NO.       ATOM         X         Y         Z

     1         C       -5.5740  -27.0700   11.3390
     2         C       -5.2140  -25.8030   11.7780
     3         C       -6.1150  -24.7530   11.6720
     4         C       -7.3680  -24.9710   11.1320
     5         C       -7.7240  -26.2330   10.6970
     6         C       -6.8260  -27.2800   10.7950
     7         H       -5.8380  -23.7660   12.0130
     8         H       -8.0690  -24.1540   11.0500
     9         H       -8.7040  -26.4020   10.2750
    10         H       -7.1070  -28.2660   10.4530
    11         N       -3.9420  -25.5840   12.3260
    12         C       -3.5680  -25.9170   13.5740
    13         O       -4.2700  -26.4510   14.4070
    14         C       -2.1550  -25.5200   13.7600
    15         C       -1.7520  -24.9670   12.6030
    16         H       -1.5610  -25.6500   14.6530
    17         C       -2.9070  -25.0170   11.6800
    18         H       -0.7720  -24.5660   12.3880
    19         O       -2.9220  -24.6060   10.5380
    20         N       -4.6160  -28.1920   11.4500
    21         O       -4.8710  -29.1430   12.1670
    22         O       -3.5700  -28.1640   10.8280

 General Reference for PM6:
 "Optimization of Parameters for Semiempirical Methods V: Modification of NDDO Approximations
 and Application to 70 Elements", J. J. P. Stewart, J. Mol. Mod., 13, 1173-1213 (2007)
 URL: http://www.springerlink.com/content/ar33482301010477/fulltext.pdf

           Empirical Formula: C10 H6 N2 O4  =    22 atoms



      MOLECULAR POINT GROUP   :   C1  
 
   NUMBER AND TYPES OF BONDS IDENTIFIED
 
         SIGMA BONDS               24
         LONE PAIRS                10
         NORMAL PI BONDS            5
         AROMATIC RING PI BONDS     1
 
  SCF CRITERION =    0.1000E-02


          HEAT OF FORMATION =     -14.476556 KCALS/MOLE


          INTERNAL COORDINATE DERIVATIVES

   NUMBER  ATOM       BOND         ANGLE      DIHEDRAL

     1       C
     2       C     18.893296
     3       C     24.025209     0.219814
     4       C      4.729018   -30.831686     1.168429
     5       C    -16.412904     3.362884    -0.250538
     6       C     -6.139710   -13.647147     0.096167
     7       H      8.523060   -11.757098     1.018303
     8       H     22.299855    -1.541980    -2.444396
     9       H    -12.277372    -0.197522    -0.067033
    10       H     -6.631214   -10.612349    -0.132318
    11       N      6.412053    -9.668223    -0.062685
    12       C     12.854566    -0.795972     0.276500
    13       O     39.452586   -66.945995    -1.170235
    14       C     -2.727269    54.793771  -134.425298
    15       C      5.498725    -4.482208    -7.978208
    16       H    -19.905616    26.661415    19.849587
    17       C    -12.175714    31.657621   -19.450542
    18       H      2.309691    -0.876635    -8.125941
    19       O    -50.632851    23.137782   136.480295
    20       N     -0.609684    -2.633960     8.031918
    21       O      2.125438    -4.712567     6.245786
    22       O     12.012571     5.209146    -1.151574


          GRADIENT NORM = 238.82948



 ** GRADIENT IS TOO LARGE TO ALLOW FORCE MATRIX TO BE CALCULATED, (LIMIT=10) **



 EITHER ADD 'LET' OR REDUCE GRADIENT
 USING 'TS' OR OTHER GEOMETRY OPTIMIZER



 TOTAL CPU TIME:             0.44 SECONDS

 == MOPAC DONE ==
