 *******************************************************************************
 ** Site#:  958            For non-commercial use only         Version 9.015L **
 *******************************************************************************
 ** Cite this work as: MOPAC2009, James J. P. Stewart, Stewart Computational  **
 ** Chemistry, Version 9.015L web: HTTP://OpenMOPAC.net                       **
 *******************************************************************************
 **                                                                           **
 **                                MOPAC2009                                  **
 **                                                                           **
 *******************************************************************************

                            PM6 CALCULATION RESULTS


 *******************************************************************************
 *  CALCULATION DONE:                                Wed Sep  7 04:48:37 2011  *
 *  PM6      - The PM6 Hamiltonian to be used
 *  PDBOUT   - PRINT GEOMETY IN PDB FORMAT
 *  MOZYME   - USE LOCALIZED M.O.s IN SOLVING THE SCF EQUATIONS
 *
 *
 *
 *                 CHARGE ON SYSTEM =     0
 *
 *
 *
 *  EPS= 78.400
 *  RSOLV=  1.300
 *  LET      - OVERRIDE SOME SAFETY CHECKS
 *  XYZ      - CARTESIAN COORDINATE SYSTEM TO BE USED
 *  LBFGS    - USE THE LBFGS GEOMETRY OPTIMIZER
 *  1SCF     - DO 1 SCF AND THEN STOP 
 *  T=       - A TIME OF  0.3E+08 SECONDS REQUESTED
 *  DUMP=N   - RESTART FILE WRITTEN EVERY  4320.000 SECONDS
 *  DDMIN=   - MINIMUM TRUST RADIUS  0.000 ANG/RAD
 *  GNORM=   - EXIT WHEN GRADIENT NORM DROPS BELOW .150    
 *  RELSCF   - DEFAULT SCF CRITERION MULTIPLIED BY   0.100    
 *             (DEFAULT SCFCRT= 0.00010)
 *  MULLIK   - THE MULLIKEN ANALYSIS TO BE PERFORMED
 *******************************************************************************
 PM6 T=31491135 DUMP=4320 XYZ EPS=78.40 RSOLV=1.30 MULLIK LBFGS MOZYME PDBOUT +
 CHARGE=-0 RELSCF=0.1 LET DDMIN=0.0 GNORM=0.15 1SCF
 SJ000001528-1_T001S001I001C01_003: Geometry optimization step

   ATOM   CHEMICAL          X               Y              Z
  NUMBER   SYMBOL      (ANGSTROMS)     (ANGSTROMS)    (ANGSTROMS)
 
     1       C         -4.7870000  *  -26.360000  *   11.831000  *
     2       C         -3.5610000  *  -25.817000  *   12.159000  *
     3       C         -2.4240000  *  -26.612000  *   12.142000  *
     4       C         -2.5220000  *  -27.953000  *   11.796000  *
     5       C         -3.7520000  *  -28.491000  *   11.470000  *
     6       C         -4.8840000  *  -27.697000  *   11.493000  *
     7       H         -3.4870000  *  -24.772000  *   12.427000  *
     8       H         -1.6390000  *  -28.574000  *   11.782000  *
     9       H         -3.8300000  *  -29.534000  *   11.200000  *
    10       H         -5.8440000  *  -28.120000  *   11.238000  *
    11       N         -1.1770000  *  -26.063000  *   12.475000  *
    12       C         -0.9030000  *  -25.392000  *   13.608000  *
    13       O         -1.6880000  *  -25.162000  *   14.505000  *
    14       C          0.5180000  *  -24.981000  *   13.575000  *
    15       C          1.0270000  *  -25.432000  *   12.416000  *
    16       H          1.0460000  *  -24.426000  *   14.336000  *
    17       C         -0.0700000  *  -26.134000  *   11.713000  *
    18       H          2.0410000  *  -25.310000  *   12.066000  *
    19       O          0.0120000  *  -26.676000  *   10.630000  *
    20       C         -6.0230000  *  -25.497000  *   11.850000  *
    21       F         -6.6910000  *  -25.667000  *   13.067000  *
    22       F         -6.8680000  *  -25.870000  *   10.799000  *
    23       F         -5.6570000  *  -24.155000  *   11.702000  *
 


          CARTESIAN COORDINATES 

    NO.       ATOM         X         Y         Z

     1         C       -4.7870  -26.3600   11.8310
     2         C       -3.5610  -25.8170   12.1590
     3         C       -2.4240  -26.6120   12.1420
     4         C       -2.5220  -27.9530   11.7960
     5         C       -3.7520  -28.4910   11.4700
     6         C       -4.8840  -27.6970   11.4930
     7         H       -3.4870  -24.7720   12.4270
     8         H       -1.6390  -28.5740   11.7820
     9         H       -3.8300  -29.5340   11.2000
    10         H       -5.8440  -28.1200   11.2380
    11         N       -1.1770  -26.0630   12.4750
    12         C       -0.9030  -25.3920   13.6080
    13         O       -1.6880  -25.1620   14.5050
    14         C        0.5180  -24.9810   13.5750
    15         C        1.0270  -25.4320   12.4160
    16         H        1.0460  -24.4260   14.3360
    17         C       -0.0700  -26.1340   11.7130
    18         H        2.0410  -25.3100   12.0660
    19         O        0.0120  -26.6760   10.6300
    20         C       -6.0230  -25.4970   11.8500
    21         F       -6.6910  -25.6670   13.0670
    22         F       -6.8680  -25.8700   10.7990
    23         F       -5.6570  -24.1550   11.7020

 General Reference for PM6:
 "Optimization of Parameters for Semiempirical Methods V: Modification of NDDO Approximations
 and Application to 70 Elements", J. J. P. Stewart, J. Mol. Mod., 13, 1173-1213 (2007)
 URL: http://www.springerlink.com/content/ar33482301010477/fulltext.pdf

           Empirical Formula: C11 H6 N O2 F3  =    23 atoms



      MOLECULAR POINT GROUP   :   C1  
 
   NUMBER AND TYPES OF BONDS IDENTIFIED
 
         SIGMA BONDS               24
         LONE PAIRS                14
         NORMAL PI BONDS            5
         AROMATIC RING PI BONDS     1
 

                  Ramachandran Angles
              Residue    phi    psi  omega

  
  SCF CRITERION =    0.1000E-02

 -------------------------------------------------------------------------------
 PM6 T=31491135 DUMP=4320 XYZ EPS=78.40 RSOLV=1.30 MULLIK LBFGS MOZYME PDBOUT +
 CHARGE=-0 RELSCF=0.1 LET DDMIN=0.0 GNORM=0.15 1SCF
 SJ000001528-1_T001S001I001C01_003: Geometry optimization step



     1SCF WAS SPECIFIED, SO BFGS WAS NOT USED                 
     SCF FIELD WAS ACHIEVED                                   


                               PM6     CALCULATION
                                                       MOPAC2009 (Version: 9.015L)
                                                       Wed Sep  7 04:48:37 2011




          FINAL HEAT OF FORMATION =       -162.76300 KCAL =    -681.00040 KJ
          VAN DER WAALS AREA      =        231.41 SQUARE ANGSTROMS


          TOTAL ENERGY            =      -3605.62981 EV
          ELECTRONIC ENERGY       =     -18643.94901 EV
          CORE-CORE REPULSION     =      15038.31920 EV
          DIELECTRIC ENERGY       =         -0.57933 EV
          COSMO AREA              =        231.41 SQUARE ANGSTROMS
          COSMO VOLUME            =        244.54 CUBIC ANGSTROMS

          NO. OF FILLED LEVELS    =         44
          MOLECULAR WEIGHT        =        241.169

          MOLECULAR DIMENSIONS (Angstroms)

            Atom       Atom       Distance
            F    22    H    16     8.78788
            F    23    H     9     5.67544
            F    21    O    19     4.45736


          SCF CALCULATIONS        =          2
          COMPUTATION TIME        =          0.186 SECONDS




   ATOM           CHEMICAL             X               Y              Z
  NUMBER           SYMBOL         (ANGSTROMS)     (ANGSTROMS)    (ANGSTROMS)
 
     1       C(     1  C     )   -4.7870000  *  -26.360000  *   11.831000  *
     2       C(     2  C     )   -3.5610000  *  -25.817000  *   12.159000  *
     3       C(     3  C     )   -2.4240000  *  -26.612000  *   12.142000  *
     4       C(     4  C     )   -2.5220000  *  -27.953000  *   11.796000  *
     5       C(     5  C     )   -3.7520000  *  -28.491000  *   11.470000  *
     6       C(     6  C     )   -4.8840000  *  -27.697000  *   11.493000  *
     7       H(     7  C     )   -3.4870000  *  -24.772000  *   12.427000  *
     8       H(     8  C     )   -1.6390000  *  -28.574000  *   11.782000  *
     9       H(     9  C     )   -3.8300000  *  -29.534000  *   11.200000  *
    10       H(    10  C     )   -5.8440000  *  -28.120000  *   11.238000  *
    11       N(    11  N     )   -1.1770000  *  -26.063000  *   12.475000  *
    12       C(    12  C     )   -0.9030000  *  -25.392000  *   13.608000  *
    13       O(    13  O     )   -1.6880000  *  -25.162000  *   14.505000  *
    14       C(    14  C     )    0.5180000  *  -24.981000  *   13.575000  *
    15       C(    15  C     )    1.0270000  *  -25.432000  *   12.416000  *
    16       H(    16  C     )    1.0460000  *  -24.426000  *   14.336000  *
    17       C(    17  C     )   -0.0700000  *  -26.134000  *   11.713000  *
    18       H(    18  C     )    2.0410000  *  -25.310000  *   12.066000  *
    19       O(    19  O     )    0.0120000  *  -26.676000  *   10.630000  *
    20       C(    20  C     )   -6.0230000  *  -25.497000  *   11.850000  *
    21       F(    21  F     )   -6.6910000  *  -25.667000  *   13.067000  *
    22       F(    22  F     )   -6.8680000  *  -25.870000  *   10.799000  *
    23       F(    23  F     )   -5.6570000  *  -24.155000  *   11.702000  *

           Empirical Formula: C11 H6 N O2 F3  =    23 atoms



              NET ATOMIC CHARGES AND DIPOLE CONTRIBUTIONS

  ATOM NO.   TYPE          CHARGE      No. of ELECS.   s-Pop       p-Pop       
    1          C          -0.135273        4.1353     1.08813     3.04715
    2          C          -0.133333        4.1333     1.10305     3.03029
    3          C           0.126141        3.8739     1.05434     2.81952
    4          C          -0.138746        4.1387     1.10939     3.02936
    5          C          -0.129387        4.1294     1.10208     3.02730
    6          C          -0.089501        4.0895     1.10310     2.98640
    7          H           0.190718        0.8093     0.80928
    8          H           0.185820        0.8142     0.81418
    9          H           0.181391        0.8186     0.81861
   10          H           0.179856        0.8201     0.82014
   11          N          -0.383639        5.3836     1.47526     3.90837
   12          C           0.611767        3.3882     1.06192     2.32631
   13          O          -0.529177        6.5292     1.85119     4.67799
   14          C          -0.216996        4.2170     1.14426     3.07273
   15          C          -0.215272        4.2153     1.14436     3.07091
   16          H           0.225337        0.7747     0.77466
   17          C           0.611910        3.3881     1.06230     2.32579
   18          H           0.225335        0.7747     0.77466
   19          O          -0.526917        6.5269     1.85120     4.67572
   20          C           0.490989        3.5090     1.17720     2.33181
   21          F          -0.177170        7.1772     1.97715     5.20002
   22          F          -0.176245        7.1762     1.97711     5.19913
   23          F          -0.177609        7.1776     1.97702     5.20059


          CARTESIAN COORDINATES 

    NO.       ATOM               X         Y         Z

     1         C                 -4.7870  -26.3600   11.8310
     2         C                 -3.5610  -25.8170   12.1590
     3         C                 -2.4240  -26.6120   12.1420
     4         C                 -2.5220  -27.9530   11.7960
     5         C                 -3.7520  -28.4910   11.4700
     6         C                 -4.8840  -27.6970   11.4930
     7         H                 -3.4870  -24.7720   12.4270
     8         H                 -1.6390  -28.5740   11.7820
     9         H                 -3.8300  -29.5340   11.2000
    10         H                 -5.8440  -28.1200   11.2380
    11         N                 -1.1770  -26.0630   12.4750
    12         C                 -0.9030  -25.3920   13.6080
    13         O                 -1.6880  -25.1620   14.5050
    14         C                  0.5180  -24.9810   13.5750
    15         C                  1.0270  -25.4320   12.4160
    16         H                  1.0460  -24.4260   14.3360
    17         C                 -0.0700  -26.1340   11.7130
    18         H                  2.0410  -25.3100   12.0660
    19         O                  0.0120  -26.6760   10.6300
    20         C                 -6.0230  -25.4970   11.8500
    21         F                 -6.6910  -25.6670   13.0670
    22         F                 -6.8680  -25.8700   10.7990
    23         F                 -5.6570  -24.1550   11.7020


          ATOMIC ORBITAL ELECTRON POPULATIONS

   1.08813   0.96165   0.99387   1.09163   1.10305   0.96278   1.08635   0.98116
   1.05434   0.83619   0.94935   1.03398   1.10939   1.06507   0.99545   0.96884
   1.10208   0.96105   1.08174   0.98452   1.10310   1.07206   0.96743   0.94691
   0.80928   0.81418   0.81861   0.82014   1.47526   1.15938   1.50086   1.24813
   1.06192   0.86205   0.70767   0.75659   1.85119   1.61332   1.59055   1.47411
   1.14426   1.00377   1.01259   1.05638   1.14436   1.09140   0.97725   1.00226
   0.77466   1.06230   0.82037   0.72431   0.78111   0.77466   1.85120   1.83332
   1.50397   1.33843   1.17720   0.81983   0.77451   0.73747   1.97715   1.82821
   1.96449   1.40733   1.97711   1.73034   1.91811   1.55068   1.97702   1.91896
   1.31279   1.96885

           MULLIKEN POPULATION ANALYSIS



        MULLIKEN POPULATIONS AND CHARGES

      NO.  ATOM   POPULATION      CHARGE
        1    C     4.157773     -0.157773
        2    C     4.176367     -0.176367
        3    C     3.840205      0.159795
        4    C     4.190846     -0.190846
        5    C     4.182292     -0.182292
        6    C     4.134290     -0.134290
        7    H     0.749043      0.250957
        8    H     0.755136      0.244864
        9    H     0.761133      0.238867
       10    H     0.762517      0.237483
       11    N     5.548339     -0.548339
       12    C     3.315600      0.684400
       13    O     6.548265     -0.548265
       14    C     4.282583     -0.282583
       15    C     4.280719     -0.280719
       16    H     0.705563      0.294437
       17    C     3.315594      0.684406
       18    H     0.705561      0.294439
       19    O     6.545985     -0.545985
       20    C     3.486612      0.513388
       21    F     7.185322     -0.185322
       22    F     7.184413     -0.184413
       23    F     7.185841     -0.185841



 TOTAL CPU TIME:             0.19 SECONDS

 == MOPAC DONE ==
 *******************************************************************************
 ** Site#:  958            For non-commercial use only         Version 9.015L **
 *******************************************************************************
 ** Cite this work as: MOPAC2009, James J. P. Stewart, Stewart Computational  **
 ** Chemistry, Version 9.015L web: HTTP://OpenMOPAC.net                       **
 *******************************************************************************
 **                                                                           **
 **                                MOPAC2009                                  **
 **                                                                           **
 *******************************************************************************

                            PM6 CALCULATION RESULTS


 *******************************************************************************
 *  CALCULATION DONE:                                Wed Sep  7 04:48:37 2011  *
 *  PM6      - The PM6 Hamiltonian to be used
 *  GEO-OK   - OVERRIDE INTERATOMIC DISTANCE CHECK
 *  MOZYME   - USE LOCALIZED M.O.s IN SOLVING THE SCF EQUATIONS
 *
 *
 *
 *                 CHARGE ON SYSTEM =     0
 *
 *
 *
 *  EPS= 78.400
 *  RSOLV=  1.300
 *  OLDGEO   - PREVIOUS GEOMETRY TO BE USED
 *  T=       - A TIME OF 172800.0 SECONDS REQUESTED
 *  DUMP=N   - RESTART FILE WRITTEN EVERY  4320.000 SECONDS
 *  RELSCF   - DEFAULT SCF CRITERION MULTIPLIED BY   0.100    
 *             (DEFAULT SCFCRT= 0.00010)
 *  THERMO   - THERMODYNAMIC QUANTITIES TO BE CALCULATED
 *******************************************************************************
 PM6 DUMP=4320 MOZYME RELSCF=0.1 THERMO EPS=78.40 RSOLV=1.30 +
 OLDGEO GEO-OK CHARGE=-0
 SJ000001528-1_T001S001I001C01_003: Free energy calculation

   ATOM           CHEMICAL             X               Y              Z
  NUMBER           SYMBOL         (ANGSTROMS)     (ANGSTROMS)    (ANGSTROMS)
 
     1       C(     1  C     )   -4.7870000  *  -26.360000  *   11.831000  *
     2       C(     2  C     )   -3.5610000  *  -25.817000  *   12.159000  *
     3       C(     3  C     )   -2.4240000  *  -26.612000  *   12.142000  *
     4       C(     4  C     )   -2.5220000  *  -27.953000  *   11.796000  *
     5       C(     5  C     )   -3.7520000  *  -28.491000  *   11.470000  *
     6       C(     6  C     )   -4.8840000  *  -27.697000  *   11.493000  *
     7       H(     7  C     )   -3.4870000  *  -24.772000  *   12.427000  *
     8       H(     8  C     )   -1.6390000  *  -28.574000  *   11.782000  *
     9       H(     9  C     )   -3.8300000  *  -29.534000  *   11.200000  *
    10       H(    10  C     )   -5.8440000  *  -28.120000  *   11.238000  *
    11       N(    11  N     )   -1.1770000  *  -26.063000  *   12.475000  *
    12       C(    12  C     )   -0.9030000  *  -25.392000  *   13.608000  *
    13       O(    13  O     )   -1.6880000  *  -25.162000  *   14.505000  *
    14       C(    14  C     )    0.5180000  *  -24.981000  *   13.575000  *
    15       C(    15  C     )    1.0270000  *  -25.432000  *   12.416000  *
    16       H(    16  C     )    1.0460000  *  -24.426000  *   14.336000  *
    17       C(    17  C     )   -0.0700000  *  -26.134000  *   11.713000  *
    18       H(    18  C     )    2.0410000  *  -25.310000  *   12.066000  *
    19       O(    19  O     )    0.0120000  *  -26.676000  *   10.630000  *
    20       C(    20  C     )   -6.0230000  *  -25.497000  *   11.850000  *
    21       F(    21  F     )   -6.6910000  *  -25.667000  *   13.067000  *
    22       F(    22  F     )   -6.8680000  *  -25.870000  *   10.799000  *
    23       F(    23  F     )   -5.6570000  *  -24.155000  *   11.702000  *
 


          CARTESIAN COORDINATES 

    NO.       ATOM         X         Y         Z

     1         C       -4.7870  -26.3600   11.8310
     2         C       -3.5610  -25.8170   12.1590
     3         C       -2.4240  -26.6120   12.1420
     4         C       -2.5220  -27.9530   11.7960
     5         C       -3.7520  -28.4910   11.4700
     6         C       -4.8840  -27.6970   11.4930
     7         H       -3.4870  -24.7720   12.4270
     8         H       -1.6390  -28.5740   11.7820
     9         H       -3.8300  -29.5340   11.2000
    10         H       -5.8440  -28.1200   11.2380
    11         N       -1.1770  -26.0630   12.4750
    12         C       -0.9030  -25.3920   13.6080
    13         O       -1.6880  -25.1620   14.5050
    14         C        0.5180  -24.9810   13.5750
    15         C        1.0270  -25.4320   12.4160
    16         H        1.0460  -24.4260   14.3360
    17         C       -0.0700  -26.1340   11.7130
    18         H        2.0410  -25.3100   12.0660
    19         O        0.0120  -26.6760   10.6300
    20         C       -6.0230  -25.4970   11.8500
    21         F       -6.6910  -25.6670   13.0670
    22         F       -6.8680  -25.8700   10.7990
    23         F       -5.6570  -24.1550   11.7020

 General Reference for PM6:
 "Optimization of Parameters for Semiempirical Methods V: Modification of NDDO Approximations
 and Application to 70 Elements", J. J. P. Stewart, J. Mol. Mod., 13, 1173-1213 (2007)
 URL: http://www.springerlink.com/content/ar33482301010477/fulltext.pdf

           Empirical Formula: C11 H6 N O2 F3  =    23 atoms



      MOLECULAR POINT GROUP   :   C1  
 
   NUMBER AND TYPES OF BONDS IDENTIFIED
 
         SIGMA BONDS               24
         LONE PAIRS                14
         NORMAL PI BONDS            5
         AROMATIC RING PI BONDS     1
 
  SCF CRITERION =    0.1000E-02


          HEAT OF FORMATION =    -162.764502 KCALS/MOLE


          INTERNAL COORDINATE DERIVATIVES

   NUMBER  ATOM       BOND         ANGLE      DIHEDRAL

     1       C
     2       C     10.757143
     3       C     18.446096     1.136527
     4       C    -11.973234    21.109993    -0.107577
     5       C     34.828939     0.597048     0.216201
     6       C     -4.980485   -19.510202     0.199348
     7       H      5.822556   -11.396633     0.164164
     8       H     20.266507    -2.804353    -0.465411
     9       H     -8.791472     8.181677     0.787195
    10       H     -5.095165   -10.845357    -0.160079
    11       N      5.287578    -9.230866     0.041646
    12       C     11.941614    -3.332766     0.957833
    13       O     78.717060     0.855265    -0.231735
    14       C    -43.934144    77.989842   105.403746
    15       C      5.282556     6.149924     8.264669
    16       H    -34.318442   -11.478940   -15.388588
    17       C    -33.420543    10.868093    15.745622
    18       H      1.913389     4.897103     6.571206
    19       O    -43.238499   -77.757036  -105.739564
    20       C      1.789399    -4.673490    -6.596218
    21       F      5.127861    -6.207219    -8.032319
    22       F      2.761339     6.109582    -1.667433
    23       F     -8.565210     2.256709   -69.009891


          GRADIENT NORM = 258.31114



 ** GRADIENT IS TOO LARGE TO ALLOW FORCE MATRIX TO BE CALCULATED, (LIMIT=10) **



 EITHER ADD 'LET' OR REDUCE GRADIENT
 USING 'TS' OR OTHER GEOMETRY OPTIMIZER



 TOTAL CPU TIME:             0.42 SECONDS

 == MOPAC DONE ==
