 *******************************************************************************
 ** Site#:  958            For non-commercial use only         Version 9.015L **
 *******************************************************************************
 ** Cite this work as: MOPAC2009, James J. P. Stewart, Stewart Computational  **
 ** Chemistry, Version 9.015L web: HTTP://OpenMOPAC.net                       **
 *******************************************************************************
 **                                                                           **
 **                                MOPAC2009                                  **
 **                                                                           **
 *******************************************************************************

                            PM6 CALCULATION RESULTS


 *******************************************************************************
 *  CALCULATION DONE:                                Wed Sep  7 14:52:18 2011  *
 *  PM6      - The PM6 Hamiltonian to be used
 *  PDBOUT   - PRINT GEOMETY IN PDB FORMAT
 *  MOZYME   - USE LOCALIZED M.O.s IN SOLVING THE SCF EQUATIONS
 *
 *
 *
 *                 CHARGE ON SYSTEM =     0
 *
 *
 *
 *  EPS= 78.400
 *  RSOLV=  1.300
 *  LET      - OVERRIDE SOME SAFETY CHECKS
 *  XYZ      - CARTESIAN COORDINATE SYSTEM TO BE USED
 *  LBFGS    - USE THE LBFGS GEOMETRY OPTIMIZER
 *  1SCF     - DO 1 SCF AND THEN STOP 
 *  T=       - A TIME OF  0.3E+08 SECONDS REQUESTED
 *  DUMP=N   - RESTART FILE WRITTEN EVERY  4320.000 SECONDS
 *  DDMIN=   - MINIMUM TRUST RADIUS  0.000 ANG/RAD
 *  GNORM=   - EXIT WHEN GRADIENT NORM DROPS BELOW .150    
 *  RELSCF   - DEFAULT SCF CRITERION MULTIPLIED BY   0.100    
 *             (DEFAULT SCFCRT= 0.00010)
 *  MULLIK   - THE MULLIKEN ANALYSIS TO BE PERFORMED
 *******************************************************************************
 PM6 T=31454914 DUMP=4320 XYZ EPS=78.40 RSOLV=1.30 MULLIK LBFGS MOZYME PDBOUT +
 CHARGE=0 RELSCF=0.1 LET DDMIN=0.0 GNORM=0.15 1SCF
 SJ000002349-1_T001S001I001C01_001: Geometry optimization step

   ATOM   CHEMICAL          X               Y              Z
  NUMBER   SYMBOL      (ANGSTROMS)     (ANGSTROMS)    (ANGSTROMS)
 
     1       C         -5.0990000  *  -20.838000  *    9.101000  *
     2       C         -3.7110000  *  -21.224000  *    9.616000  *
     3       C         -3.8040000  *  -22.496000  *   10.423000  *
     4       C         -4.9170000  *  -22.790000  *   11.119000  *
     5       C         -4.9910000  *  -24.058000  *   11.929000  *
     6       C         -3.6030000  *  -24.572000  *   12.218000  *
     7       C         -2.5650000  *  -24.173000  *   11.459000  *
     8       C         -1.1660000  *  -24.666000  *   11.746000  *
     9       C         -1.2270000  *  -26.076000  *   12.337000  *
    10       C         -2.0700000  *  -26.032000  *   13.616000  *
    11       C         -3.4270000  *  -25.472000  *   13.286000  *
    12       O         -4.3870000  *  -25.800000  *   13.955000  *
    13       O         -2.7490000  *  -23.329000  *   10.430000  *
    14       C         -6.0350000  *  -21.934000  *   11.108000  *
    15       O         -7.0180000  *  -22.225000  *   11.761000  *
    16       C         -6.0320000  *  -20.661000  *   10.303000  *
    17       H         -3.0410000  *  -21.379000  *    8.770000  *
    18       H         -3.3210000  *  -20.423000  *   10.244000  *
    19       H         -5.5020000  *  -23.857000  *   12.871000  *
    20       H         -0.5920000  *  -24.685000  *   10.819000  *
    21       H         -0.6840000  *  -23.995000  *   12.456000  *
    22       H         -2.1780000  *  -27.040000  *   14.016000  *
    23       H         -1.5810000  *  -25.396000  *   14.352000  *
    24       H         -5.6780000  *  -19.838000  *   10.923000  *
    25       H         -7.0430000  *  -20.448000  *    9.954000  *
    26       C         -5.7580000  *  -25.101000  *   11.157000  *
    27       C         -6.7760000  *  -25.812000  *   11.777000  *
    28       C         -7.4840000  *  -26.771000  *   11.067000  *
    29       C         -7.1700000  *  -27.016000  *    9.739000  *
    30       H         -8.2750000  *  -27.325000  *   11.547000  *
    31       C         -6.1510000  *  -26.302000  *    9.124000  *
    32       C         -5.4520000  *  -25.344000  *    9.832000  *
    33       H         -5.9070000  *  -26.494000  *    8.090000  *
    34       H         -4.6600000  *  -24.790000  *    9.352000  *
    35       O         -7.0820000  *  -25.568000  *   13.079000  *
    36       H         -6.3100000  *  -25.463000  *   13.652000  *
    37       O         -7.8610000  *  -27.954000  *    9.040000  *
    38       H         -7.4210000  *  -28.246000  *    8.230000  *
    39       C         -5.0120000  *  -19.524000  *    8.321000  *
    40       H         -5.7890000  *  -18.843000  *    8.670000  *
    41       H         -4.0330000  *  -19.072000  *    8.479000  *
    42       H         -5.1540000  *  -19.723000  *    7.259000  *
    43       C         -5.6340000  *  -21.942000  *    8.188000  *
    44       H         -6.5250000  *  -22.384000  *    8.634000  *
    45       H         -5.8870000  *  -21.520000  *    7.215000  *
    46       H         -4.8710000  *  -22.711000  *    8.061000  *
    47       C         -1.8740000  *  -27.028000  *   11.328000  *
    48       H         -2.7560000  *  -27.486000  *   11.775000  *
    49       H         -2.1650000  *  -26.470000  *   10.438000  *
    50       H         -1.1610000  *  -27.804000  *   11.053000  *
    51       C          0.1880000  *  -26.558000  *   12.664000  *
    52       H          0.9120000  *  -25.959000  *   12.111000  *
    53       H          0.3690000  *  -26.450000  *   13.733000  *
    54       H          0.2890000  *  -27.605000  *   12.381000  *
 


          CARTESIAN COORDINATES 

    NO.       ATOM         X         Y         Z

     1         C       -5.0990  -20.8380    9.1010
     2         C       -3.7110  -21.2240    9.6160
     3         C       -3.8040  -22.4960   10.4230
     4         C       -4.9170  -22.7900   11.1190
     5         C       -4.9910  -24.0580   11.9290
     6         C       -3.6030  -24.5720   12.2180
     7         C       -2.5650  -24.1730   11.4590
     8         C       -1.1660  -24.6660   11.7460
     9         C       -1.2270  -26.0760   12.3370
    10         C       -2.0700  -26.0320   13.6160
    11         C       -3.4270  -25.4720   13.2860
    12         O       -4.3870  -25.8000   13.9550
    13         O       -2.7490  -23.3290   10.4300
    14         C       -6.0350  -21.9340   11.1080
    15         O       -7.0180  -22.2250   11.7610
    16         C       -6.0320  -20.6610   10.3030
    17         H       -3.0410  -21.3790    8.7700
    18         H       -3.3210  -20.4230   10.2440
    19         H       -5.5020  -23.8570   12.8710
    20         H       -0.5920  -24.6850   10.8190
    21         H       -0.6840  -23.9950   12.4560
    22         H       -2.1780  -27.0400   14.0160
    23         H       -1.5810  -25.3960   14.3520
    24         H       -5.6780  -19.8380   10.9230
    25         H       -7.0430  -20.4480    9.9540
    26         C       -5.7580  -25.1010   11.1570
    27         C       -6.7760  -25.8120   11.7770
    28         C       -7.4840  -26.7710   11.0670
    29         C       -7.1700  -27.0160    9.7390
    30         H       -8.2750  -27.3250   11.5470
    31         C       -6.1510  -26.3020    9.1240
    32         C       -5.4520  -25.3440    9.8320
    33         H       -5.9070  -26.4940    8.0900
    34         H       -4.6600  -24.7900    9.3520
    35         O       -7.0820  -25.5680   13.0790
    36         H       -6.3100  -25.4630   13.6520
    37         O       -7.8610  -27.9540    9.0400
    38         H       -7.4210  -28.2460    8.2300
    39         C       -5.0120  -19.5240    8.3210
    40         H       -5.7890  -18.8430    8.6700
    41         H       -4.0330  -19.0720    8.4790
    42         H       -5.1540  -19.7230    7.2590
    43         C       -5.6340  -21.9420    8.1880
    44         H       -6.5250  -22.3840    8.6340
    45         H       -5.8870  -21.5200    7.2150
    46         H       -4.8710  -22.7110    8.0610
    47         C       -1.8740  -27.0280   11.3280
    48         H       -2.7560  -27.4860   11.7750
    49         H       -2.1650  -26.4700   10.4380
    50         H       -1.1610  -27.8040   11.0530
    51         C        0.1880  -26.5580   12.6640
    52         H        0.9120  -25.9590   12.1110
    53         H        0.3690  -26.4500   13.7330
    54         H        0.2890  -27.6050   12.3810

 General Reference for PM6:
 "Optimization of Parameters for Semiempirical Methods V: Modification of NDDO Approximations
 and Application to 70 Elements", J. J. P. Stewart, J. Mol. Mod., 13, 1173-1213 (2007)
 URL: http://www.springerlink.com/content/ar33482301010477/fulltext.pdf

           Empirical Formula: C23 H26 O5  =    54 atoms



      MOLECULAR POINT GROUP   :   C1  
 
   NUMBER AND TYPES OF BONDS IDENTIFIED
 
         SIGMA BONDS               57
         LONE PAIRS                10
         NORMAL PI BONDS            6
         AROMATIC RING PI BONDS     1
 

                  Ramachandran Angles
              Residue    phi    psi  omega

  
  SCF CRITERION =    0.1000E-02

 -------------------------------------------------------------------------------
 PM6 T=31454914 DUMP=4320 XYZ EPS=78.40 RSOLV=1.30 MULLIK LBFGS MOZYME PDBOUT +
 CHARGE=0 RELSCF=0.1 LET DDMIN=0.0 GNORM=0.15 1SCF
 SJ000002349-1_T001S001I001C01_001: Geometry optimization step



     1SCF WAS SPECIFIED, SO BFGS WAS NOT USED                 
     SCF FIELD WAS ACHIEVED                                   


                               PM6     CALCULATION
                                                       MOPAC2009 (Version: 9.015L)
                                                       Wed Sep  7 14:52:19 2011




          FINAL HEAT OF FORMATION =       -194.30866 KCAL =    -812.98745 KJ
          VAN DER WAALS AREA      =        354.43 SQUARE ANGSTROMS


          TOTAL ENERGY            =      -4640.75343 EV
          ELECTRONIC ENERGY       =     -41961.30218 EV
          CORE-CORE REPULSION     =      37320.54875 EV
          DIELECTRIC ENERGY       =         -1.42330 EV
          COSMO AREA              =        354.43 SQUARE ANGSTROMS
          COSMO VOLUME            =        439.01 CUBIC ANGSTROMS

          NO. OF FILLED LEVELS    =         74
          MOLECULAR WEIGHT        =        382.455

          MOLECULAR DIMENSIONS (Angstroms)

            Atom       Atom       Distance
            H    52    H    25    10.38287
            H    52    H    25     9.37158
            H    36    H    42     4.31024


          SCF CALCULATIONS        =          2
          COMPUTATION TIME        =          0.567 SECONDS




   ATOM           CHEMICAL             X               Y              Z
  NUMBER           SYMBOL         (ANGSTROMS)     (ANGSTROMS)    (ANGSTROMS)
 
     1       C(     1  C     )   -5.0990000  *  -20.838000  *    9.101000  *
     2       C(     2  C     )   -3.7110000  *  -21.224000  *    9.616000  *
     3       C(     3  C     )   -3.8040000  *  -22.496000  *   10.423000  *
     4       C(     4  C     )   -4.9170000  *  -22.790000  *   11.119000  *
     5       C(     5  C     )   -4.9910000  *  -24.058000  *   11.929000  *
     6       C(     6  C     )   -3.6030000  *  -24.572000  *   12.218000  *
     7       C(     7  C     )   -2.5650000  *  -24.173000  *   11.459000  *
     8       C(     8  C     )   -1.1660000  *  -24.666000  *   11.746000  *
     9       C(     9  C     )   -1.2270000  *  -26.076000  *   12.337000  *
    10       C(    10  C     )   -2.0700000  *  -26.032000  *   13.616000  *
    11       C(    11  C     )   -3.4270000  *  -25.472000  *   13.286000  *
    12       O(    12  O     )   -4.3870000  *  -25.800000  *   13.955000  *
    13       O(    13  O     )   -2.7490000  *  -23.329000  *   10.430000  *
    14       C(    14  C     )   -6.0350000  *  -21.934000  *   11.108000  *
    15       O(    15  O     )   -7.0180000  *  -22.225000  *   11.761000  *
    16       C(    16  C     )   -6.0320000  *  -20.661000  *   10.303000  *
    17       H(    17  C     )   -3.0410000  *  -21.379000  *    8.770000  *
    18       H(    18  C     )   -3.3210000  *  -20.423000  *   10.244000  *
    19       H(    19  C     )   -5.5020000  *  -23.857000  *   12.871000  *
    20       H(    20  C     )   -0.5920000  *  -24.685000  *   10.819000  *
    21       H(    21  C     )   -0.6840000  *  -23.995000  *   12.456000  *
    22       H(    22  C     )   -2.1780000  *  -27.040000  *   14.016000  *
    23       H(    23  C     )   -1.5810000  *  -25.396000  *   14.352000  *
    24       H(    24  C     )   -5.6780000  *  -19.838000  *   10.923000  *
    25       H(    25  C     )   -7.0430000  *  -20.448000  *    9.954000  *
    26       C(    26  C     )   -5.7580000  *  -25.101000  *   11.157000  *
    27       C(    27  C     )   -6.7760000  *  -25.812000  *   11.777000  *
    28       C(    28  C     )   -7.4840000  *  -26.771000  *   11.067000  *
    29       C(    29  C     )   -7.1700000  *  -27.016000  *    9.739000  *
    30       H(    30  C     )   -8.2750000  *  -27.325000  *   11.547000  *
    31       C(    31  C     )   -6.1510000  *  -26.302000  *    9.124000  *
    32       C(    32  C     )   -5.4520000  *  -25.344000  *    9.832000  *
    33       H(    33  C     )   -5.9070000  *  -26.494000  *    8.090000  *
    34       H(    34  C     )   -4.6600000  *  -24.790000  *    9.352000  *
    35       O(    35  O     )   -7.0820000  *  -25.568000  *   13.079000  *
    36       H(    36  O     )   -6.3100000  *  -25.463000  *   13.652000  *
    37       O(    37  O     )   -7.8610000  *  -27.954000  *    9.040000  *
    38       H(    38  O     )   -7.4210000  *  -28.246000  *    8.230000  *
    39       C(    39  C     )   -5.0120000  *  -19.524000  *    8.321000  *
    40       H(    40  C     )   -5.7890000  *  -18.843000  *    8.670000  *
    41       H(    41  C     )   -4.0330000  *  -19.072000  *    8.479000  *
    42       H(    42  C     )   -5.1540000  *  -19.723000  *    7.259000  *
    43       C(    43  C     )   -5.6340000  *  -21.942000  *    8.188000  *
    44       H(    44  C     )   -6.5250000  *  -22.384000  *    8.634000  *
    45       H(    45  C     )   -5.8870000  *  -21.520000  *    7.215000  *
    46       H(    46  C     )   -4.8710000  *  -22.711000  *    8.061000  *
    47       C(    47  C     )   -1.8740000  *  -27.028000  *   11.328000  *
    48       H(    48  C     )   -2.7560000  *  -27.486000  *   11.775000  *
    49       H(    49  C     )   -2.1650000  *  -26.470000  *   10.438000  *
    50       H(    50  C     )   -1.1610000  *  -27.804000  *   11.053000  *
    51       C(    51  C     )    0.1880000  *  -26.558000  *   12.664000  *
    52       H(    52  C     )    0.9120000  *  -25.959000  *   12.111000  *
    53       H(    53  C     )    0.3690000  *  -26.450000  *   13.733000  *
    54       H(    54  C     )    0.2890000  *  -27.605000  *   12.381000  *

           Empirical Formula: C23 H26 O5  =    54 atoms



              NET ATOMIC CHARGES AND DIPOLE CONTRIBUTIONS

  ATOM NO.   TYPE          CHARGE      No. of ELECS.   s-Pop       p-Pop       
    1          C           0.285123        3.7149     1.06309     2.65178
    2          C          -0.421284        4.4213     1.10823     3.31305
    3          C           0.442768        3.5572     1.10139     2.45585
    4          C          -0.488535        4.4885     1.10983     3.37870
    5          C           0.143858        3.8561     1.04814     2.80800
    6          C          -0.503747        4.5037     1.11035     3.39340
    7          C           0.457351        3.5426     1.10171     2.44094
    8          C          -0.423496        4.4235     1.10861     3.31488
    9          C           0.285234        3.7148     1.06355     2.65122
   10          C          -0.524571        4.5246     1.11813     3.40644
   11          C           0.673573        3.3264     1.07566     2.25077
   12          O          -0.647690        6.6477     1.84118     4.80651
   13          O          -0.345376        6.3454     1.78451     4.56086
   14          C           0.668485        3.3315     1.07527     2.25624
   15          O          -0.634589        6.6346     1.84479     4.78980
   16          C          -0.528213        4.5282     1.11897     3.40925
   17          H           0.200414        0.7996     0.79959
   18          H           0.207854        0.7921     0.79215
   19          H           0.144895        0.8551     0.85511
   20          H           0.201706        0.7983     0.79829
   21          H           0.208096        0.7919     0.79190
   22          H           0.204275        0.7957     0.79573
   23          H           0.208787        0.7912     0.79121
   24          H           0.206893        0.7931     0.79311
   25          H           0.203441        0.7966     0.79656
   26          C          -0.280980        4.2810     1.09663     3.18435
   27          C           0.425147        3.5749     1.05911     2.51574
   28          C          -0.480703        4.4807     1.09714     3.38357
   29          C           0.427084        3.5729     1.05980     2.51312
   30          H           0.206991        0.7930     0.79301
   31          C          -0.448790        4.4488     1.10625     3.34254
   32          C           0.059006        3.9410     1.09419     2.84681
   33          H           0.193012        0.8070     0.80699
   34          H           0.148489        0.8515     0.85151
   35          O          -0.550184        6.5502     1.77790     4.77228
   36          H           0.372609        0.6274     0.62739
   37          O          -0.521874        6.5219     1.78070     4.74118
   38          H           0.370797        0.6292     0.62920
   39          C          -0.550126        4.5501     1.09690     3.45322
   40          H           0.173507        0.8265     0.82649
   41          H           0.171775        0.8282     0.82822
   42          H           0.174255        0.8257     0.82574
   43          C          -0.558708        4.5587     1.09843     3.46028
   44          H           0.170057        0.8299     0.82994
   45          H           0.176243        0.8238     0.82376
   46          H           0.168783        0.8312     0.83122
   47          C          -0.558419        4.5584     1.09819     3.46023
   48          H           0.170860        0.8291     0.82914
   49          H           0.169363        0.8306     0.83064
   50          H           0.175655        0.8243     0.82434
   51          C          -0.548182        4.5482     1.09640     3.45178
   52          H           0.172411        0.8276     0.82759
   53          H           0.171909        0.8281     0.82809
   54          H           0.174762        0.8252     0.82524


          CARTESIAN COORDINATES 

    NO.       ATOM               X         Y         Z

     1         C                 -5.0990  -20.8380    9.1010
     2         C                 -3.7110  -21.2240    9.6160
     3         C                 -3.8040  -22.4960   10.4230
     4         C                 -4.9170  -22.7900   11.1190
     5         C                 -4.9910  -24.0580   11.9290
     6         C                 -3.6030  -24.5720   12.2180
     7         C                 -2.5650  -24.1730   11.4590
     8         C                 -1.1660  -24.6660   11.7460
     9         C                 -1.2270  -26.0760   12.3370
    10         C                 -2.0700  -26.0320   13.6160
    11         C                 -3.4270  -25.4720   13.2860
    12         O                 -4.3870  -25.8000   13.9550
    13         O                 -2.7490  -23.3290   10.4300
    14         C                 -6.0350  -21.9340   11.1080
    15         O                 -7.0180  -22.2250   11.7610
    16         C                 -6.0320  -20.6610   10.3030
    17         H                 -3.0410  -21.3790    8.7700
    18         H                 -3.3210  -20.4230   10.2440
    19         H                 -5.5020  -23.8570   12.8710
    20         H                 -0.5920  -24.6850   10.8190
    21         H                 -0.6840  -23.9950   12.4560
    22         H                 -2.1780  -27.0400   14.0160
    23         H                 -1.5810  -25.3960   14.3520
    24         H                 -5.6780  -19.8380   10.9230
    25         H                 -7.0430  -20.4480    9.9540
    26         C                 -5.7580  -25.1010   11.1570
    27         C                 -6.7760  -25.8120   11.7770
    28         C                 -7.4840  -26.7710   11.0670
    29         C                 -7.1700  -27.0160    9.7390
    30         H                 -8.2750  -27.3250   11.5470
    31         C                 -6.1510  -26.3020    9.1240
    32         C                 -5.4520  -25.3440    9.8320
    33         H                 -5.9070  -26.4940    8.0900
    34         H                 -4.6600  -24.7900    9.3520
    35         O                 -7.0820  -25.5680   13.0790
    36         H                 -6.3100  -25.4630   13.6520
    37         O                 -7.8610  -27.9540    9.0400
    38         H                 -7.4210  -28.2460    8.2300
    39         C                 -5.0120  -19.5240    8.3210
    40         H                 -5.7890  -18.8430    8.6700
    41         H                 -4.0330  -19.0720    8.4790
    42         H                 -5.1540  -19.7230    7.2590
    43         C                 -5.6340  -21.9420    8.1880
    44         H                 -6.5250  -22.3840    8.6340
    45         H                 -5.8870  -21.5200    7.2150
    46         H                 -4.8710  -22.7110    8.0610
    47         C                 -1.8740  -27.0280   11.3280
    48         H                 -2.7560  -27.4860   11.7750
    49         H                 -2.1650  -26.4700   10.4380
    50         H                 -1.1610  -27.8040   11.0530
    51         C                  0.1880  -26.5580   12.6640
    52         H                  0.9120  -25.9590   12.1110
    53         H                  0.3690  -26.4500   13.7330
    54         H                  0.2890  -27.6050   12.3810


          ATOMIC ORBITAL ELECTRON POPULATIONS

   1.06309   0.85217   0.91457   0.88504   1.10823   1.13455   1.03547   1.14303
   1.10139   0.79282   0.81915   0.84388   1.10983   1.07001   1.12055   1.18814
   1.04814   0.90928   0.88195   1.01678   1.11035   1.05867   1.18958   1.14515
   1.10171   0.93421   0.75394   0.75279   1.10861   1.01822   1.10919   1.18748
   1.06355   0.90914   0.86641   0.87567   1.11813   1.07638   1.19625   1.13381
   1.07566   0.82452   0.69452   0.73173   1.84118   1.54674   1.65827   1.60150
   1.78451   1.54614   1.50807   1.50665   1.07527   0.78263   0.79357   0.68004
   1.84479   1.49061   1.77949   1.51970   1.11897   1.17887   1.11613   1.11424
   0.79959   0.79215   0.85511   0.79829   0.79190   0.79573   0.79121   0.79311
   0.79656   1.09663   1.07721   1.08410   1.02304   1.05911   0.88794   0.87019
   0.75760   1.09714   1.19706   1.14726   1.03924   1.05980   0.84368   0.80054
   0.86890   0.79301   1.10625   1.10419   1.11049   1.12787   1.09419   0.96518
   0.92840   0.95323   0.80699   0.85151   1.77790   1.55222   1.89919   1.32087
   0.62739   1.78070   1.61054   1.62421   1.50643   0.62920   1.09690   1.19519
   1.09811   1.15992   0.82649   0.82822   0.82574   1.09843   1.17704   1.12950
   1.15373   0.82994   0.82376   0.83122   1.09819   1.17450   1.14792   1.13781
   0.82914   0.83064   0.82434   1.09640   1.07982   1.18230   1.18967   0.82759
   0.82809   0.82524

           MULLIKEN POPULATION ANALYSIS



        MULLIKEN POPULATIONS AND CHARGES

      NO.  ATOM   POPULATION      CHARGE
        1    C     3.685868      0.314132
        2    C     4.541143     -0.541143
        3    C     3.533630      0.466370
        4    C     4.539278     -0.539278
        5    C     3.850253      0.149747
        6    C     4.555155     -0.555155
        7    C     3.517721      0.482279
        8    C     4.544016     -0.544016
        9    C     3.685902      0.314098
       10    C     4.655644     -0.655644
       11    C     3.274284      0.725716
       12    O     6.675553     -0.675553
       13    O     6.392304     -0.392304
       14    C     3.278963      0.721037
       15    O     6.659874     -0.659874
       16    C     4.659152     -0.659152
       17    H     0.742333      0.257667
       18    H     0.734896      0.265104
       19    H     0.809349      0.190651
       20    H     0.740861      0.259139
       21    H     0.734372      0.265628
       22    H     0.738107      0.261893
       23    H     0.734412      0.265588
       24    H     0.736708      0.263292
       25    H     0.739337      0.260663
       26    C     4.307929     -0.307929
       27    C     3.546979      0.453021
       28    C     4.554299     -0.554299
       29    C     3.548262      0.451738
       30    H     0.728030      0.271970
       31    C     4.525894     -0.525894
       32    C     3.964412      0.035588
       33    H     0.746520      0.253480
       34    H     0.803386      0.196614
       35    O     6.601429     -0.601429
       36    H     0.591345      0.408655
       37    O     6.573929     -0.573929
       38    H     0.594318      0.405682
       39    C     4.696630     -0.696630
       40    H     0.778221      0.221779
       41    H     0.780167      0.219833
       42    H     0.777691      0.222309
       43    C     4.704006     -0.704006
       44    H     0.782355      0.217645
       45    H     0.775229      0.224771
       46    H     0.784312      0.215688
       47    C     4.704129     -0.704129
       48    H     0.781413      0.218587
       49    H     0.783246      0.216754
       50    H     0.775686      0.224314
       51    C     4.694795     -0.694795
       52    H     0.779548      0.220452
       53    H     0.779789      0.220211
       54    H     0.776936      0.223064



 TOTAL CPU TIME:             0.60 SECONDS

 == MOPAC DONE ==
 *******************************************************************************
 ** Site#:  958            For non-commercial use only         Version 9.015L **
 *******************************************************************************
 ** Cite this work as: MOPAC2009, James J. P. Stewart, Stewart Computational  **
 ** Chemistry, Version 9.015L web: HTTP://OpenMOPAC.net                       **
 *******************************************************************************
 **                                                                           **
 **                                MOPAC2009                                  **
 **                                                                           **
 *******************************************************************************

                            PM6 CALCULATION RESULTS


 *******************************************************************************
 *  CALCULATION DONE:                                Wed Sep  7 14:52:19 2011  *
 *  PM6      - The PM6 Hamiltonian to be used
 *  GEO-OK   - OVERRIDE INTERATOMIC DISTANCE CHECK
 *  MOZYME   - USE LOCALIZED M.O.s IN SOLVING THE SCF EQUATIONS
 *
 *
 *
 *                 CHARGE ON SYSTEM =     0
 *
 *
 *
 *  EPS= 78.400
 *  RSOLV=  1.300
 *  OLDGEO   - PREVIOUS GEOMETRY TO BE USED
 *  T=       - A TIME OF 172800.0 SECONDS REQUESTED
 *  DUMP=N   - RESTART FILE WRITTEN EVERY  4320.000 SECONDS
 *  RELSCF   - DEFAULT SCF CRITERION MULTIPLIED BY   0.100    
 *             (DEFAULT SCFCRT= 0.00010)
 *  THERMO   - THERMODYNAMIC QUANTITIES TO BE CALCULATED
 *******************************************************************************
 PM6 DUMP=4320 MOZYME RELSCF=0.1 THERMO EPS=78.40 RSOLV=1.30 +
 OLDGEO GEO-OK CHARGE=0
 SJ000002349-1_T001S001I001C01_001: Free energy calculation

   ATOM           CHEMICAL             X               Y              Z
  NUMBER           SYMBOL         (ANGSTROMS)     (ANGSTROMS)    (ANGSTROMS)
 
     1       C(     1  C     )   -5.0990000  *  -20.838000  *    9.101000  *
     2       C(     2  C     )   -3.7110000  *  -21.224000  *    9.616000  *
     3       C(     3  C     )   -3.8040000  *  -22.496000  *   10.423000  *
     4       C(     4  C     )   -4.9170000  *  -22.790000  *   11.119000  *
     5       C(     5  C     )   -4.9910000  *  -24.058000  *   11.929000  *
     6       C(     6  C     )   -3.6030000  *  -24.572000  *   12.218000  *
     7       C(     7  C     )   -2.5650000  *  -24.173000  *   11.459000  *
     8       C(     8  C     )   -1.1660000  *  -24.666000  *   11.746000  *
     9       C(     9  C     )   -1.2270000  *  -26.076000  *   12.337000  *
    10       C(    10  C     )   -2.0700000  *  -26.032000  *   13.616000  *
    11       C(    11  C     )   -3.4270000  *  -25.472000  *   13.286000  *
    12       O(    12  O     )   -4.3870000  *  -25.800000  *   13.955000  *
    13       O(    13  O     )   -2.7490000  *  -23.329000  *   10.430000  *
    14       C(    14  C     )   -6.0350000  *  -21.934000  *   11.108000  *
    15       O(    15  O     )   -7.0180000  *  -22.225000  *   11.761000  *
    16       C(    16  C     )   -6.0320000  *  -20.661000  *   10.303000  *
    17       H(    17  C     )   -3.0410000  *  -21.379000  *    8.770000  *
    18       H(    18  C     )   -3.3210000  *  -20.423000  *   10.244000  *
    19       H(    19  C     )   -5.5020000  *  -23.857000  *   12.871000  *
    20       H(    20  C     )   -0.5920000  *  -24.685000  *   10.819000  *
    21       H(    21  C     )   -0.6840000  *  -23.995000  *   12.456000  *
    22       H(    22  C     )   -2.1780000  *  -27.040000  *   14.016000  *
    23       H(    23  C     )   -1.5810000  *  -25.396000  *   14.352000  *
    24       H(    24  C     )   -5.6780000  *  -19.838000  *   10.923000  *
    25       H(    25  C     )   -7.0430000  *  -20.448000  *    9.954000  *
    26       C(    26  C     )   -5.7580000  *  -25.101000  *   11.157000  *
    27       C(    27  C     )   -6.7760000  *  -25.812000  *   11.777000  *
    28       C(    28  C     )   -7.4840000  *  -26.771000  *   11.067000  *
    29       C(    29  C     )   -7.1700000  *  -27.016000  *    9.739000  *
    30       H(    30  C     )   -8.2750000  *  -27.325000  *   11.547000  *
    31       C(    31  C     )   -6.1510000  *  -26.302000  *    9.124000  *
    32       C(    32  C     )   -5.4520000  *  -25.344000  *    9.832000  *
    33       H(    33  C     )   -5.9070000  *  -26.494000  *    8.090000  *
    34       H(    34  C     )   -4.6600000  *  -24.790000  *    9.352000  *
    35       O(    35  O     )   -7.0820000  *  -25.568000  *   13.079000  *
    36       H(    36  O     )   -6.3100000  *  -25.463000  *   13.652000  *
    37       O(    37  O     )   -7.8610000  *  -27.954000  *    9.040000  *
    38       H(    38  O     )   -7.4210000  *  -28.246000  *    8.230000  *
    39       C(    39  C     )   -5.0120000  *  -19.524000  *    8.321000  *
    40       H(    40  C     )   -5.7890000  *  -18.843000  *    8.670000  *
    41       H(    41  C     )   -4.0330000  *  -19.072000  *    8.479000  *
    42       H(    42  C     )   -5.1540000  *  -19.723000  *    7.259000  *
    43       C(    43  C     )   -5.6340000  *  -21.942000  *    8.188000  *
    44       H(    44  C     )   -6.5250000  *  -22.384000  *    8.634000  *
    45       H(    45  C     )   -5.8870000  *  -21.520000  *    7.215000  *
    46       H(    46  C     )   -4.8710000  *  -22.711000  *    8.061000  *
    47       C(    47  C     )   -1.8740000  *  -27.028000  *   11.328000  *
    48       H(    48  C     )   -2.7560000  *  -27.486000  *   11.775000  *
    49       H(    49  C     )   -2.1650000  *  -26.470000  *   10.438000  *
    50       H(    50  C     )   -1.1610000  *  -27.804000  *   11.053000  *
    51       C(    51  C     )    0.1880000  *  -26.558000  *   12.664000  *
    52       H(    52  C     )    0.9120000  *  -25.959000  *   12.111000  *
    53       H(    53  C     )    0.3690000  *  -26.450000  *   13.733000  *
    54       H(    54  C     )    0.2890000  *  -27.605000  *   12.381000  *
 


          CARTESIAN COORDINATES 

    NO.       ATOM         X         Y         Z

     1         C       -5.0990  -20.8380    9.1010
     2         C       -3.7110  -21.2240    9.6160
     3         C       -3.8040  -22.4960   10.4230
     4         C       -4.9170  -22.7900   11.1190
     5         C       -4.9910  -24.0580   11.9290
     6         C       -3.6030  -24.5720   12.2180
     7         C       -2.5650  -24.1730   11.4590
     8         C       -1.1660  -24.6660   11.7460
     9         C       -1.2270  -26.0760   12.3370
    10         C       -2.0700  -26.0320   13.6160
    11         C       -3.4270  -25.4720   13.2860
    12         O       -4.3870  -25.8000   13.9550
    13         O       -2.7490  -23.3290   10.4300
    14         C       -6.0350  -21.9340   11.1080
    15         O       -7.0180  -22.2250   11.7610
    16         C       -6.0320  -20.6610   10.3030
    17         H       -3.0410  -21.3790    8.7700
    18         H       -3.3210  -20.4230   10.2440
    19         H       -5.5020  -23.8570   12.8710
    20         H       -0.5920  -24.6850   10.8190
    21         H       -0.6840  -23.9950   12.4560
    22         H       -2.1780  -27.0400   14.0160
    23         H       -1.5810  -25.3960   14.3520
    24         H       -5.6780  -19.8380   10.9230
    25         H       -7.0430  -20.4480    9.9540
    26         C       -5.7580  -25.1010   11.1570
    27         C       -6.7760  -25.8120   11.7770
    28         C       -7.4840  -26.7710   11.0670
    29         C       -7.1700  -27.0160    9.7390
    30         H       -8.2750  -27.3250   11.5470
    31         C       -6.1510  -26.3020    9.1240
    32         C       -5.4520  -25.3440    9.8320
    33         H       -5.9070  -26.4940    8.0900
    34         H       -4.6600  -24.7900    9.3520
    35         O       -7.0820  -25.5680   13.0790
    36         H       -6.3100  -25.4630   13.6520
    37         O       -7.8610  -27.9540    9.0400
    38         H       -7.4210  -28.2460    8.2300
    39         C       -5.0120  -19.5240    8.3210
    40         H       -5.7890  -18.8430    8.6700
    41         H       -4.0330  -19.0720    8.4790
    42         H       -5.1540  -19.7230    7.2590
    43         C       -5.6340  -21.9420    8.1880
    44         H       -6.5250  -22.3840    8.6340
    45         H       -5.8870  -21.5200    7.2150
    46         H       -4.8710  -22.7110    8.0610
    47         C       -1.8740  -27.0280   11.3280
    48         H       -2.7560  -27.4860   11.7750
    49         H       -2.1650  -26.4700   10.4380
    50         H       -1.1610  -27.8040   11.0530
    51         C        0.1880  -26.5580   12.6640
    52         H        0.9120  -25.9590   12.1110
    53         H        0.3690  -26.4500   13.7330
    54         H        0.2890  -27.6050   12.3810

 General Reference for PM6:
 "Optimization of Parameters for Semiempirical Methods V: Modification of NDDO Approximations
 and Application to 70 Elements", J. J. P. Stewart, J. Mol. Mod., 13, 1173-1213 (2007)
 URL: http://www.springerlink.com/content/ar33482301010477/fulltext.pdf

           Empirical Formula: C23 H26 O5  =    54 atoms



      MOLECULAR POINT GROUP   :   C1  
 
   NUMBER AND TYPES OF BONDS IDENTIFIED
 
         SIGMA BONDS               57
         LONE PAIRS                10
         NORMAL PI BONDS            6
         AROMATIC RING PI BONDS     1
 
  SCF CRITERION =    0.1000E-02


          HEAT OF FORMATION =    -194.308776 KCALS/MOLE


          INTERNAL COORDINATE DERIVATIVES

   NUMBER  ATOM       BOND         ANGLE      DIHEDRAL

     1       C
     2       C     11.892911
     3       C      9.264725    -2.764383
     4       C    -23.033582   -24.498610   -13.737506
     5       C     37.387717    22.306935    20.185790
     6       C    -43.693595   -13.433242   -11.935828
     7       C     -0.812382     3.696356   -12.334229
     8       C     29.059167    36.186374    -4.254961
     9       C    -36.144310   -29.818494    10.114407
    10       C     33.290123    14.330211    -6.073561
    11       C    -10.900904    -7.175646    -7.013214
    12       O     14.946929     7.863052    -6.676917
    13       O    -25.838364   -30.475814    13.543852
    14       C     12.987516   -38.237987    20.916121
    15       O    -34.763364    54.095789   -35.381279
    16       C     40.378004     6.477994    26.048408
    17       H     23.872921   -20.558458    19.637939
    18       H    -11.755493   -10.424606    -9.475696
    19       H     -8.768048    12.044486    -8.349348
    20       H    -10.733243     8.577806     9.577280
    21       H      4.024919    -7.222314    20.654782
    22       H     -6.802581    13.266773    -8.058367
    23       H     -6.476549    11.804912    10.363992
    24       H     -7.473589   -12.719414     3.845043
    25       H     -7.793524    -1.105242    14.097907
    26       C      1.303051     5.160741    14.231482
    27       C     12.908608     1.810900     6.334259
    28       C    -12.913960    18.426353    14.494210
    29       C     -2.928557    -1.035650    -4.869320
    30       H     16.183743   -30.475189     8.463773
    31       C     -3.412881     6.073828    -3.009840
    32       C      3.302242    -8.449852     2.034617
    33       H     -0.884998    14.296809   -20.845295
    34       H     -1.855451     6.119538   -10.063571
    35       O      0.262916     3.321183    -7.859139
    36       H     -3.536819     8.430540    -3.439465
    37       O     25.161314   -23.340181     1.812078
    38       H    -20.525183     7.672145     8.428128
    39       C     10.369091   -21.889224    15.015321
    40       H     -2.138850     7.768180   -15.660030
    41       H     -5.417158    -4.168789     3.565667
    42       H      4.175683     8.667667     0.559476
    43       C      2.519859    10.183038     1.291818
    44       H      3.216410     8.986710    -1.755275
    45       H     -1.019905    -1.823325     0.733093
    46       H      4.573378    -4.861568    -9.208092
    47       C      4.291616    -2.967749    -8.020688
    48       H      3.925103    -3.710508    -9.739122
    49       H      0.721658     1.675164     1.773102
    50       H      4.414588    -5.024936    -9.084334
    51       C      4.688316    -4.034024   -10.098328
    52       H      2.566489    -3.713239    -9.064432
    53       H      5.658385     3.209216     5.636582
    54       H     -9.431817     1.119494    -2.666666


          GRADIENT NORM = 189.50299



 ** GRADIENT IS TOO LARGE TO ALLOW FORCE MATRIX TO BE CALCULATED, (LIMIT=10) **



 EITHER ADD 'LET' OR REDUCE GRADIENT
 USING 'TS' OR OTHER GEOMETRY OPTIMIZER



 TOTAL CPU TIME:             1.36 SECONDS

 == MOPAC DONE ==
