 *******************************************************************************
 ** Site#:  958            For non-commercial use only         Version 9.015L **
 *******************************************************************************
 ** Cite this work as: MOPAC2009, James J. P. Stewart, Stewart Computational  **
 ** Chemistry, Version 9.015L web: HTTP://OpenMOPAC.net                       **
 *******************************************************************************
 **                                                                           **
 **                                MOPAC2009                                  **
 **                                                                           **
 *******************************************************************************

                            PM6 CALCULATION RESULTS


 *******************************************************************************
 *  CALCULATION DONE:                                Tue Sep  6 17:23:03 2011  *
 *  PM6      - The PM6 Hamiltonian to be used
 *  PDBOUT   - PRINT GEOMETY IN PDB FORMAT
 *  MOZYME   - USE LOCALIZED M.O.s IN SOLVING THE SCF EQUATIONS
 *
 *
 *
 *                 CHARGE ON SYSTEM =    -1
 *
 *
 *
 *  EPS= 78.400
 *  RSOLV=  1.300
 *  LET      - OVERRIDE SOME SAFETY CHECKS
 *  XYZ      - CARTESIAN COORDINATE SYSTEM TO BE USED
 *  LBFGS    - USE THE LBFGS GEOMETRY OPTIMIZER
 *  1SCF     - DO 1 SCF AND THEN STOP 
 *  T=       - A TIME OF  0.3E+08 SECONDS REQUESTED
 *  DUMP=N   - RESTART FILE WRITTEN EVERY  4320.000 SECONDS
 *  DDMIN=   - MINIMUM TRUST RADIUS  0.000 ANG/RAD
 *  GNORM=   - EXIT WHEN GRADIENT NORM DROPS BELOW .150    
 *  RELSCF   - DEFAULT SCF CRITERION MULTIPLIED BY   0.100    
 *             (DEFAULT SCFCRT= 0.00010)
 *  MULLIK   - THE MULLIKEN ANALYSIS TO BE PERFORMED
 *******************************************************************************
 PM6 T=31532269 DUMP=4320 XYZ EPS=78.40 RSOLV=1.30 MULLIK LBFGS MOZYME PDBOUT +
 CHARGE=-1 RELSCF=0.1 LET DDMIN=0.0 GNORM=0.15 1SCF
 SJ000001113-1_T001S001I001C01_004: Geometry optimization step

   ATOM   CHEMICAL          X               Y              Z
  NUMBER   SYMBOL      (ANGSTROMS)     (ANGSTROMS)    (ANGSTROMS)
 
     1       C          4.7050000  *  -34.528000  *   12.895000  *
     2       C          4.3680000  *  -34.456000  *   14.262000  *
     3       C          5.3450000  *  -34.208000  *   15.240000  *
     4       C          4.9840000  *  -34.144000  *   16.551000  *
     5       C          3.6570000  *  -34.322000  *   16.939000  *
     6       C          2.6840000  *  -34.563000  *   16.020000  *
     7       C          3.0190000  *  -34.636000  *   14.656000  *
     8       C          2.0390000  *  -34.883000  *   13.680000  *
     9       C          2.3890000  *  -34.947000  *   12.365000  *
    10       C          3.7120000  *  -34.767000  *   11.963000  *
    11       H          6.3770000  *  -34.069000  *   14.953000  *
    12       H          5.7380000  *  -33.954000  *   17.302000  *
    13       H          3.3980000  *  -34.266000  *   17.986000  *
    14       H          1.6610000  *  -34.699000  *   16.335000  *
    15       H          1.6280000  *  -35.137000  *   11.622000  *
    16       S          0.3570000  *  -35.107000  *   14.156000  *
    17       O         -0.0730000  *  -33.864000  *   14.776000  *
    18       O         -0.3870000  *  -35.399000  *   12.941000  *
    19       O          0.3320000  *  -36.222000  *   15.092000  *
    20       O          4.0300000  *  -34.838000  *   10.642000  *
    21       H          4.3640000  *  -35.703000  *   10.364000  *
    22       N          6.0290000  *  -34.354000  *   12.485000  *
    23       H          6.2680000  *  -34.472000  *   11.552000  *
    24       H          6.7100000  *  -34.111000  *   13.132000  *
 


          CARTESIAN COORDINATES 

    NO.       ATOM         X         Y         Z

     1         C        4.7050  -34.5280   12.8950
     2         C        4.3680  -34.4560   14.2620
     3         C        5.3450  -34.2080   15.2400
     4         C        4.9840  -34.1440   16.5510
     5         C        3.6570  -34.3220   16.9390
     6         C        2.6840  -34.5630   16.0200
     7         C        3.0190  -34.6360   14.6560
     8         C        2.0390  -34.8830   13.6800
     9         C        2.3890  -34.9470   12.3650
    10         C        3.7120  -34.7670   11.9630
    11         H        6.3770  -34.0690   14.9530
    12         H        5.7380  -33.9540   17.3020
    13         H        3.3980  -34.2660   17.9860
    14         H        1.6610  -34.6990   16.3350
    15         H        1.6280  -35.1370   11.6220
    16         S        0.3570  -35.1070   14.1560
    17         O       -0.0730  -33.8640   14.7760
    18         O       -0.3870  -35.3990   12.9410
    19         O        0.3320  -36.2220   15.0920
    20         O        4.0300  -34.8380   10.6420
    21         H        4.3640  -35.7030   10.3640
    22         N        6.0290  -34.3540   12.4850
    23         H        6.2680  -34.4720   11.5520
    24         H        6.7100  -34.1110   13.1320

 General Reference for PM6:
 "Optimization of Parameters for Semiempirical Methods V: Modification of NDDO Approximations
 and Application to 70 Elements", J. J. P. Stewart, J. Mol. Mod., 13, 1173-1213 (2007)
 URL: http://www.springerlink.com/content/ar33482301010477/fulltext.pdf

           Empirical Formula: C10 H8 N O4 S  =    24 atoms



      MOLECULAR POINT GROUP   :   C1  
 
   NUMBER AND TYPES OF BONDS IDENTIFIED
 
         SIGMA BONDS               25
         LONE PAIRS                 9
         NORMAL PI BONDS            1
         AROMATIC RING PI BONDS     4
         ANIONS                     3
         SUM OF OTHER CHARGES       2
 
 UNKNOWN RESIDUE:    1 ATOM:    0    C:10 N: 1 O: 4 S: 1 SEE KEYWORD 'XENO'
  AMINO ACID = UNK

                  Ramachandran Angles
              Residue    phi    psi  omega

  

 COMPUTED CHARGE ON SYSTEM:  -1
  SCF CRITERION =    0.1000E-02

 -------------------------------------------------------------------------------
 PM6 T=31532269 DUMP=4320 XYZ EPS=78.40 RSOLV=1.30 MULLIK LBFGS MOZYME PDBOUT +
 CHARGE=-1 RELSCF=0.1 LET DDMIN=0.0 GNORM=0.15 1SCF
 SJ000001113-1_T001S001I001C01_004: Geometry optimization step



     1SCF WAS SPECIFIED, SO BFGS WAS NOT USED                 
     SCF FIELD WAS ACHIEVED                                   


                               PM6     CALCULATION
                                                       MOPAC2009 (Version: 9.015L)
                                                       Tue Sep  6 17:23:03 2011




          FINAL HEAT OF FORMATION =       -236.29289 KCAL =    -988.64944 KJ
          VAN DER WAALS AREA      =        222.76 SQUARE ANGSTROMS


          TOTAL ENERGY            =      -3011.43348 EV
          ELECTRONIC ENERGY       =     -16758.56131 EV
          CORE-CORE REPULSION     =      13747.12783 EV
          DIELECTRIC ENERGY       =         -4.12274 EV
          COSMO AREA              =        222.76 SQUARE ANGSTROMS
          COSMO VOLUME            =        236.54 CUBIC ANGSTROMS

          NO. OF FILLED LEVELS    =         42
          MOLECULAR WEIGHT        =        238.238

          MOLECULAR DIMENSIONS (Angstroms)

            Atom       Atom       Distance
            H    12    O    18     7.65650
            H    23    H    13     6.90610
            O    19    O    17     2.41219


          SCF CALCULATIONS        =          2
          COMPUTATION TIME        =          0.232 SECONDS




   ATOM           CHEMICAL             X               Y              Z
  NUMBER           SYMBOL         (ANGSTROMS)     (ANGSTROMS)    (ANGSTROMS)
 
     1       C(     1 UNK*  1)    4.7050000  *  -34.528000  *   12.895000  *
     2       C(     2 UNK   1)    4.3680000  *  -34.456000  *   14.262000  *
     3       C(     3 UNK   1)    5.3450000  *  -34.208000  *   15.240000  *
     4       C(     4 UNK   1)    4.9840000  *  -34.144000  *   16.551000  *
     5       C(     5 UNK   1)    3.6570000  *  -34.322000  *   16.939000  *
     6       C(     6 UNK   1)    2.6840000  *  -34.563000  *   16.020000  *
     7       C(     7 UNK   1)    3.0190000  *  -34.636000  *   14.656000  *
     8       C(     8 UNK   1)    2.0390000  *  -34.883000  *   13.680000  *
     9       C(     9 UNK   1)    2.3890000  *  -34.947000  *   12.365000  *
    10       C(    10 UNK*  1)    3.7120000  *  -34.767000  *   11.963000  *
    11       H(    11 UNK   1)    6.3770000  *  -34.069000  *   14.953000  *
    12       H(    12 UNK   1)    5.7380000  *  -33.954000  *   17.302000  *
    13       H(    13 UNK   1)    3.3980000  *  -34.266000  *   17.986000  *
    14       H(    14 UNK   1)    1.6610000  *  -34.699000  *   16.335000  *
    15       H(    15 UNK   1)    1.6280000  *  -35.137000  *   11.622000  *
    16       S(    16 UNK   1)    0.3570000  *  -35.107000  *   14.156000  *
    17       O(    17 UNK   1)   -0.0730000  *  -33.864000  *   14.776000  *
    18       O(    18 UNK   1)   -0.3870000  *  -35.399000  *   12.941000  *
    19       O(    19 UNK   1)    0.3320000  *  -36.222000  *   15.092000  *
    20       O(    20 UNK*  1)    4.0300000  *  -34.838000  *   10.642000  *
    21       H(    21 UNK*  1)    4.3640000  *  -35.703000  *   10.364000  *
    22       N(    22 UNK*  1)    6.0290000  *  -34.354000  *   12.485000  *
    23       H(    23 UNK*  1)    6.2680000  *  -34.472000  *   11.552000  *
    24       H(    24 UNK*  1)    6.7100000  *  -34.111000  *   13.132000  *

           Empirical Formula: C10 H8 N O4 S  =    24 atoms



              NET ATOMIC CHARGES AND DIPOLE CONTRIBUTIONS

  ATOM NO.   TYPE          CHARGE      No. of ELECS.   s-Pop       p-Pop       d-Pop       
    1          C           0.240474        3.7595     1.07790     2.68162
    2          C          -0.213624        4.2136     1.07796     3.13567
    3          C          -0.072238        4.0722     1.09892     2.97332
    4          C          -0.228941        4.2289     1.09812     3.13083
    5          C          -0.056726        4.0567     1.09942     2.95730
    6          C          -0.284062        4.2841     1.10749     3.17657
    7          C           0.239421        3.7606     1.06446     2.69611
    8          C          -0.681914        4.6819     1.15107     3.53085
    9          C           0.049327        3.9507     1.09937     2.85130
   10          C          -0.039591        4.0396     1.05305     2.98654
   11          H           0.157159        0.8428     0.84284
   12          H           0.167943        0.8321     0.83206
   13          H           0.155846        0.8442     0.84415
   14          H           0.183963        0.8160     0.81604
   15          H           0.165397        0.8346     0.83460
   16          S           2.622108        3.3779     1.13330     1.87914     0.36545
   17          O          -1.105661        7.1057     1.87374     5.23192
   18          O          -1.106163        7.1062     1.87356     5.23260
   19          O          -1.106221        7.1062     1.87452     5.23170
   20          O          -0.545372        6.5454     1.77688     4.76850
   21          H           0.359237        0.6408     0.64076
   22          N          -0.460315        5.4603     1.42572     4.03460
   23          H           0.281106        0.7189     0.71889
   24          H           0.278846        0.7212     0.72115

             NET CHARGE ON RESIDUES

     Residue        Charge

      UNK   1        -1.000 ANION
 
 DIPOLE           X         Y         Z       TOTAL
 POINT-CHG.    19.491     1.500    -0.939    19.572
 HYBRID         1.083    -0.209    -0.695     1.303
 SUM           20.574     1.291    -1.634    20.679


          CARTESIAN COORDINATES 

    NO.       ATOM               X         Y         Z

     1         C                  4.7050  -34.5280   12.8950
     2         C                  4.3680  -34.4560   14.2620
     3         C                  5.3450  -34.2080   15.2400
     4         C                  4.9840  -34.1440   16.5510
     5         C                  3.6570  -34.3220   16.9390
     6         C                  2.6840  -34.5630   16.0200
     7         C                  3.0190  -34.6360   14.6560
     8         C                  2.0390  -34.8830   13.6800
     9         C                  2.3890  -34.9470   12.3650
    10         C                  3.7120  -34.7670   11.9630
    11         H                  6.3770  -34.0690   14.9530
    12         H                  5.7380  -33.9540   17.3020
    13         H                  3.3980  -34.2660   17.9860
    14         H                  1.6610  -34.6990   16.3350
    15         H                  1.6280  -35.1370   11.6220
    16         S                  0.3570  -35.1070   14.1560
    17         O                 -0.0730  -33.8640   14.7760
    18         O                 -0.3870  -35.3990   12.9410
    19         O                  0.3320  -36.2220   15.0920
    20         O                  4.0300  -34.8380   10.6420
    21         H                  4.3640  -35.7030   10.3640
    22         N                  6.0290  -34.3540   12.4850
    23         H                  6.2680  -34.4720   11.5520
    24         H                  6.7100  -34.1110   13.1320


          ATOMIC ORBITAL ELECTRON POPULATIONS

   1.07790   0.85504   0.87536   0.95123   1.07796   1.01330   1.15367   0.96869
   1.09892   1.04971   0.94775   0.97586   1.09812   1.03799   1.05707   1.03577
   1.09942   0.96825   0.92306   1.06599   1.10749   1.09665   1.07667   1.00325
   1.06446   0.90923   0.86330   0.92359   1.15107   1.19672   1.27845   1.05568
   1.09937   1.00416   0.85511   0.99203   1.05305   0.96730   1.22906   0.79018
   0.84284   0.83206   0.84415   0.81604   0.83460   1.13330   0.64749   0.61658
   0.61508   0.08021   0.06066   0.07483   0.10187   0.04788   1.87374   1.85451
   1.57113   1.80629   1.87356   1.78241   1.86635   1.58384   1.87452   1.88830
   1.63456   1.70884   1.77688   1.88364   1.53145   1.35341   0.64076   1.42572
   1.11986   1.70679   1.20794   0.71889   0.72115

           MULLIKEN POPULATION ANALYSIS



        MULLIKEN POPULATIONS AND CHARGES

      NO.  ATOM   POPULATION      CHARGE
        1    C     3.724929      0.275071
        2    C     4.237015     -0.237015
        3    C     4.110647     -0.110647
        4    C     4.286685     -0.286685
        5    C     4.100502     -0.100502
        6    C     4.350426     -0.350426
        7    C     3.725319      0.274681
        8    C     4.774041     -0.774041
        9    C     3.972325      0.027675
       10    C     4.038437     -0.038437
       11    H     0.793859      0.206141
       12    H     0.777920      0.222080
       13    H     0.792988      0.207012
       14    H     0.758245      0.241755
       15    H     0.781449      0.218551
       16    S     3.169409      2.830591
       17    O     7.157202     -1.157202
       18    O     7.157807     -1.157807
       19    O     7.157363     -1.157363
       20    O     6.592487     -0.592487
       21    H     0.606939      0.393061
       22    N     5.648212     -0.648212
       23    H     0.641404      0.358596
       24    H     0.644391      0.355609



 TOTAL CPU TIME:             0.24 SECONDS

 == MOPAC DONE ==
 *******************************************************************************
 ** Site#:  958            For non-commercial use only         Version 9.015L **
 *******************************************************************************
 ** Cite this work as: MOPAC2009, James J. P. Stewart, Stewart Computational  **
 ** Chemistry, Version 9.015L web: HTTP://OpenMOPAC.net                       **
 *******************************************************************************
 **                                                                           **
 **                                MOPAC2009                                  **
 **                                                                           **
 *******************************************************************************

                            PM6 CALCULATION RESULTS


 *******************************************************************************
 *  CALCULATION DONE:                                Tue Sep  6 17:23:03 2011  *
 *  PM6      - The PM6 Hamiltonian to be used
 *  GEO-OK   - OVERRIDE INTERATOMIC DISTANCE CHECK
 *  MOZYME   - USE LOCALIZED M.O.s IN SOLVING THE SCF EQUATIONS
 *
 *
 *
 *                 CHARGE ON SYSTEM =    -1
 *
 *
 *
 *  EPS= 78.400
 *  RSOLV=  1.300
 *  OLDGEO   - PREVIOUS GEOMETRY TO BE USED
 *  T=       - A TIME OF 172800.0 SECONDS REQUESTED
 *  DUMP=N   - RESTART FILE WRITTEN EVERY  4320.000 SECONDS
 *  RELSCF   - DEFAULT SCF CRITERION MULTIPLIED BY   0.100    
 *             (DEFAULT SCFCRT= 0.00010)
 *  THERMO   - THERMODYNAMIC QUANTITIES TO BE CALCULATED
 *******************************************************************************
 PM6 DUMP=4320 MOZYME RELSCF=0.1 THERMO EPS=78.40 RSOLV=1.30 +
 OLDGEO GEO-OK CHARGE=-1
 SJ000001113-1_T001S001I001C01_004: Free energy calculation

   ATOM           CHEMICAL             X               Y              Z
  NUMBER           SYMBOL         (ANGSTROMS)     (ANGSTROMS)    (ANGSTROMS)
 
     1       C(     1 UNK*  1)    4.7050000  *  -34.528000  *   12.895000  *
     2       C(     2 UNK   1)    4.3680000  *  -34.456000  *   14.262000  *
     3       C(     3 UNK   1)    5.3450000  *  -34.208000  *   15.240000  *
     4       C(     4 UNK   1)    4.9840000  *  -34.144000  *   16.551000  *
     5       C(     5 UNK   1)    3.6570000  *  -34.322000  *   16.939000  *
     6       C(     6 UNK   1)    2.6840000  *  -34.563000  *   16.020000  *
     7       C(     7 UNK   1)    3.0190000  *  -34.636000  *   14.656000  *
     8       C(     8 UNK   1)    2.0390000  *  -34.883000  *   13.680000  *
     9       C(     9 UNK   1)    2.3890000  *  -34.947000  *   12.365000  *
    10       C(    10 UNK*  1)    3.7120000  *  -34.767000  *   11.963000  *
    11       H(    11 UNK   1)    6.3770000  *  -34.069000  *   14.953000  *
    12       H(    12 UNK   1)    5.7380000  *  -33.954000  *   17.302000  *
    13       H(    13 UNK   1)    3.3980000  *  -34.266000  *   17.986000  *
    14       H(    14 UNK   1)    1.6610000  *  -34.699000  *   16.335000  *
    15       H(    15 UNK   1)    1.6280000  *  -35.137000  *   11.622000  *
    16       S(    16 UNK   1)    0.3570000  *  -35.107000  *   14.156000  *
    17       O(    17 UNK   1)   -0.0730000  *  -33.864000  *   14.776000  *
    18       O(    18 UNK   1)   -0.3870000  *  -35.399000  *   12.941000  *
    19       O(    19 UNK   1)    0.3320000  *  -36.222000  *   15.092000  *
    20       O(    20 UNK*  1)    4.0300000  *  -34.838000  *   10.642000  *
    21       H(    21 UNK*  1)    4.3640000  *  -35.703000  *   10.364000  *
    22       N(    22 UNK*  1)    6.0290000  *  -34.354000  *   12.485000  *
    23       H(    23 UNK*  1)    6.2680000  *  -34.472000  *   11.552000  *
    24       H(    24 UNK*  1)    6.7100000  *  -34.111000  *   13.132000  *
 


          CARTESIAN COORDINATES 

    NO.       ATOM         X         Y         Z

     1         C        4.7050  -34.5280   12.8950
     2         C        4.3680  -34.4560   14.2620
     3         C        5.3450  -34.2080   15.2400
     4         C        4.9840  -34.1440   16.5510
     5         C        3.6570  -34.3220   16.9390
     6         C        2.6840  -34.5630   16.0200
     7         C        3.0190  -34.6360   14.6560
     8         C        2.0390  -34.8830   13.6800
     9         C        2.3890  -34.9470   12.3650
    10         C        3.7120  -34.7670   11.9630
    11         H        6.3770  -34.0690   14.9530
    12         H        5.7380  -33.9540   17.3020
    13         H        3.3980  -34.2660   17.9860
    14         H        1.6610  -34.6990   16.3350
    15         H        1.6280  -35.1370   11.6220
    16         S        0.3570  -35.1070   14.1560
    17         O       -0.0730  -33.8640   14.7760
    18         O       -0.3870  -35.3990   12.9410
    19         O        0.3320  -36.2220   15.0920
    20         O        4.0300  -34.8380   10.6420
    21         H        4.3640  -35.7030   10.3640
    22         N        6.0290  -34.3540   12.4850
    23         H        6.2680  -34.4720   11.5520
    24         H        6.7100  -34.1110   13.1320

 General Reference for PM6:
 "Optimization of Parameters for Semiempirical Methods V: Modification of NDDO Approximations
 and Application to 70 Elements", J. J. P. Stewart, J. Mol. Mod., 13, 1173-1213 (2007)
 URL: http://www.springerlink.com/content/ar33482301010477/fulltext.pdf

           Empirical Formula: C10 H8 N O4 S  =    24 atoms



      MOLECULAR POINT GROUP   :   C1  
 
   NUMBER AND TYPES OF BONDS IDENTIFIED
 
         SIGMA BONDS               25
         LONE PAIRS                 9
         NORMAL PI BONDS            1
         AROMATIC RING PI BONDS     4
         ANIONS                     3
         SUM OF OTHER CHARGES       2
 

 COMPUTED CHARGE ON SYSTEM:  -1
  SCF CRITERION =    0.1000E-02


          HEAT OF FORMATION =    -236.292635 KCALS/MOLE


          INTERNAL COORDINATE DERIVATIVES

   NUMBER  ATOM       BOND         ANGLE      DIHEDRAL

     1       C
     2       C     31.848900
     3       C    -50.318322    -0.573092
     4       C    -16.143987     6.297189    -2.085566
     5       C     -0.595542   -12.818087     0.085872
     6       C     -7.034280   -28.003966     0.347700
     7       C    -24.677012     6.521074    -0.219843
     8       C    -10.456561     7.256687     0.081664
     9       C      6.261114     2.535090    -0.063019
    10       C    -12.039390    24.165811    -1.639414
    11       H      8.601644    19.078099     0.234810
    12       H     -0.029945    15.471039     9.416879
    13       H      3.904606    -9.132903    -0.011747
    14       H     -6.208664    -7.087110    -0.068654
    15       H    -10.953104    -1.707097     0.009809
    16       S     -7.380184     7.055545     0.052689
    17       O     10.511893     8.783709     0.272971
    18       O     31.962685   -54.830516     2.112188
    19       O    -27.074942     7.133663   -41.210461
    20       O     31.518091    38.756626     1.528840
    21       H    -29.081622     6.131278    37.907385
    22       N     28.002557     4.428335   -19.995318
    23       H      1.315684    -1.336886    13.675985
    24       H    -19.283535    39.061679     0.344109


          GRADIENT NORM = 154.21116



 ** GRADIENT IS TOO LARGE TO ALLOW FORCE MATRIX TO BE CALCULATED, (LIMIT=10) **



 EITHER ADD 'LET' OR REDUCE GRADIENT
 USING 'TS' OR OTHER GEOMETRY OPTIMIZER



 TOTAL CPU TIME:             0.52 SECONDS

 == MOPAC DONE ==
