 *******************************************************************************
 ** Site#:  958            For non-commercial use only         Version 9.015L **
 *******************************************************************************
 ** Cite this work as: MOPAC2009, James J. P. Stewart, Stewart Computational  **
 ** Chemistry, Version 9.015L web: HTTP://OpenMOPAC.net                       **
 *******************************************************************************
 **                                                                           **
 **                                MOPAC2009                                  **
 **                                                                           **
 *******************************************************************************

                            PM6 CALCULATION RESULTS


 *******************************************************************************
 *  CALCULATION DONE:                                Wed Sep  7 23:03:26 2011  *
 *  PM6      - The PM6 Hamiltonian to be used
 *  PDBOUT   - PRINT GEOMETY IN PDB FORMAT
 *  MOZYME   - USE LOCALIZED M.O.s IN SOLVING THE SCF EQUATIONS
 *
 *
 *
 *                 CHARGE ON SYSTEM =     0
 *
 *
 *
 *  EPS= 78.400
 *  RSOLV=  1.300
 *  LET      - OVERRIDE SOME SAFETY CHECKS
 *  XYZ      - CARTESIAN COORDINATE SYSTEM TO BE USED
 *  LBFGS    - USE THE LBFGS GEOMETRY OPTIMIZER
 *  1SCF     - DO 1 SCF AND THEN STOP 
 *  T=       - A TIME OF  0.3E+08 SECONDS REQUESTED
 *  DUMP=N   - RESTART FILE WRITTEN EVERY  4320.000 SECONDS
 *  DDMIN=   - MINIMUM TRUST RADIUS  0.000 ANG/RAD
 *  GNORM=   - EXIT WHEN GRADIENT NORM DROPS BELOW .150    
 *  RELSCF   - DEFAULT SCF CRITERION MULTIPLIED BY   0.100    
 *             (DEFAULT SCFCRT= 0.00010)
 *  MULLIK   - THE MULLIKEN ANALYSIS TO BE PERFORMED
 *******************************************************************************
 PM6 T=31425446 DUMP=4320 XYZ EPS=78.40 RSOLV=1.30 MULLIK LBFGS MOZYME PDBOUT +
 CHARGE=0 RELSCF=0.1 LET DDMIN=0.0 GNORM=0.15 1SCF
 SJ000002349-1_T001S001I001C04_002: Geometry optimization step

   ATOM   CHEMICAL          X               Y              Z
  NUMBER   SYMBOL      (ANGSTROMS)     (ANGSTROMS)    (ANGSTROMS)
 
     1       C          0.7270000  *  -24.733000  *   12.492000  *
     2       C         -0.0120000  *  -24.059000  *   11.335000  *
     3       C         -0.8940000  *  -25.064000  *   10.631000  *
     4       C         -1.4450000  *  -26.080000  *   11.321000  *
     5       C         -2.3200000  *  -27.083000  *   10.613000  *
     6       C         -2.0750000  *  -27.047000  *    9.125000  *
     7       C         -1.4830000  *  -25.973000  *    8.568000  *
     8       C         -1.2290000  *  -25.935000  *    7.079000  *
     9       C         -0.9720000  *  -27.350000  *    6.559000  *
    10       C         -2.2310000  *  -28.169000  *    6.857000  *
    11       C         -2.4710000  *  -28.146000  *    8.341000  *
    12       O         -3.0160000  *  -29.093000  *    8.873000  *
    13       O         -1.1150000  *  -24.920000  *    9.314000  *
    14       C         -1.2170000  *  -26.228000  *   12.702000  *
    15       O         -1.7400000  *  -27.148000  *   13.298000  *
    16       C         -0.3390000  *  -25.265000  *   13.453000  *
    17       H         -0.6280000  *  -23.248000  *   11.724000  *
    18       H          0.7130000  *  -23.656000  *   10.629000  *
    19       H         -2.0980000  *  -28.082000  *   10.989000  *
    20       H         -2.1000000  *  -25.516000  *    6.575000  *
    21       H         -0.3590000  *  -25.311000  *    6.877000  *
    22       H         -3.0850000  *  -27.730000  *    6.340000  *
    23       H         -2.0870000  *  -29.197000  *    6.523000  *
    24       H          0.1410000  *  -25.779000  *   14.286000  *
    25       H         -0.9400000  *  -24.437000  *   13.830000  *
    26       C         -3.7660000  *  -26.760000  *   10.885000  *
    27       C         -4.6370000  *  -27.762000  *   11.290000  *
    28       C         -5.9670000  *  -27.464000  *   11.541000  *
    29       C         -6.4250000  *  -26.166000  *   11.386000  *
    30       H         -6.6450000  *  -28.243000  *   11.857000  *
    31       C         -5.5520000  *  -25.166000  *   10.980000  *
    32       C         -4.2250000  *  -25.465000  *   10.736000  *
    33       H         -5.9080000  *  -24.155000  *   10.858000  *
    34       H         -3.5460000  *  -24.686000  *   10.421000  *
    35       O         -4.1840000  *  -29.035000  *   11.442000  *
    36       H         -3.5810000  *  -29.324000  *   10.743000  *
    37       O         -7.7290000  *  -25.870000  *   11.630000  *
    38       H         -8.1600000  *  -25.374000  *   10.921000  *
    39       C          1.5770000  *  -25.891000  *   11.964000  *
    40       H          1.2310000  *  -26.826000  *   12.405000  *
    41       H          1.4870000  *  -25.944000  *   10.880000  *
    42       H          2.6200000  *  -25.727000  *   12.235000  *
    43       C          1.6180000  *  -23.715000  *   13.207000  *
    44       H          1.6340000  *  -23.933000  *   14.274000  *
    45       H          2.6300000  *  -23.775000  *   12.808000  *
    46       H          1.2220000  *  -22.712000  *   13.046000  *
    47       C         -0.7170000  *  -27.314000  *    5.050000  *
    48       H         -1.5420000  *  -27.803000  *    4.531000  *
    49       H         -0.6430000  *  -26.278000  *    4.720000  *
    50       H          0.2140000  *  -27.835000  *    4.827000  *
    51       C          0.2330000  *  -27.960000  *    7.278000  *
    52       H          1.0270000  *  -28.153000  *    6.556000  *
    53       H          0.5920000  *  -27.265000  *    8.036000  *
    54       H         -0.0620000  *  -28.895000  *    7.753000  *
 


          CARTESIAN COORDINATES 

    NO.       ATOM         X         Y         Z

     1         C        0.7270  -24.7330   12.4920
     2         C       -0.0120  -24.0590   11.3350
     3         C       -0.8940  -25.0640   10.6310
     4         C       -1.4450  -26.0800   11.3210
     5         C       -2.3200  -27.0830   10.6130
     6         C       -2.0750  -27.0470    9.1250
     7         C       -1.4830  -25.9730    8.5680
     8         C       -1.2290  -25.9350    7.0790
     9         C       -0.9720  -27.3500    6.5590
    10         C       -2.2310  -28.1690    6.8570
    11         C       -2.4710  -28.1460    8.3410
    12         O       -3.0160  -29.0930    8.8730
    13         O       -1.1150  -24.9200    9.3140
    14         C       -1.2170  -26.2280   12.7020
    15         O       -1.7400  -27.1480   13.2980
    16         C       -0.3390  -25.2650   13.4530
    17         H       -0.6280  -23.2480   11.7240
    18         H        0.7130  -23.6560   10.6290
    19         H       -2.0980  -28.0820   10.9890
    20         H       -2.1000  -25.5160    6.5750
    21         H       -0.3590  -25.3110    6.8770
    22         H       -3.0850  -27.7300    6.3400
    23         H       -2.0870  -29.1970    6.5230
    24         H        0.1410  -25.7790   14.2860
    25         H       -0.9400  -24.4370   13.8300
    26         C       -3.7660  -26.7600   10.8850
    27         C       -4.6370  -27.7620   11.2900
    28         C       -5.9670  -27.4640   11.5410
    29         C       -6.4250  -26.1660   11.3860
    30         H       -6.6450  -28.2430   11.8570
    31         C       -5.5520  -25.1660   10.9800
    32         C       -4.2250  -25.4650   10.7360
    33         H       -5.9080  -24.1550   10.8580
    34         H       -3.5460  -24.6860   10.4210
    35         O       -4.1840  -29.0350   11.4420
    36         H       -3.5810  -29.3240   10.7430
    37         O       -7.7290  -25.8700   11.6300
    38         H       -8.1600  -25.3740   10.9210
    39         C        1.5770  -25.8910   11.9640
    40         H        1.2310  -26.8260   12.4050
    41         H        1.4870  -25.9440   10.8800
    42         H        2.6200  -25.7270   12.2350
    43         C        1.6180  -23.7150   13.2070
    44         H        1.6340  -23.9330   14.2740
    45         H        2.6300  -23.7750   12.8080
    46         H        1.2220  -22.7120   13.0460
    47         C       -0.7170  -27.3140    5.0500
    48         H       -1.5420  -27.8030    4.5310
    49         H       -0.6430  -26.2780    4.7200
    50         H        0.2140  -27.8350    4.8270
    51         C        0.2330  -27.9600    7.2780
    52         H        1.0270  -28.1530    6.5560
    53         H        0.5920  -27.2650    8.0360
    54         H       -0.0620  -28.8950    7.7530

 General Reference for PM6:
 "Optimization of Parameters for Semiempirical Methods V: Modification of NDDO Approximations
 and Application to 70 Elements", J. J. P. Stewart, J. Mol. Mod., 13, 1173-1213 (2007)
 URL: http://www.springerlink.com/content/ar33482301010477/fulltext.pdf

           Empirical Formula: C23 H26 O5  =    54 atoms



      MOLECULAR POINT GROUP   :   C1  
 
   NUMBER AND TYPES OF BONDS IDENTIFIED
 
         SIGMA BONDS               57
         LONE PAIRS                10
         NORMAL PI BONDS            6
         AROMATIC RING PI BONDS     1
 

                  Ramachandran Angles
              Residue    phi    psi  omega

  
  SCF CRITERION =    0.1000E-02

 -------------------------------------------------------------------------------
 PM6 T=31425446 DUMP=4320 XYZ EPS=78.40 RSOLV=1.30 MULLIK LBFGS MOZYME PDBOUT +
 CHARGE=0 RELSCF=0.1 LET DDMIN=0.0 GNORM=0.15 1SCF
 SJ000002349-1_T001S001I001C04_002: Geometry optimization step



     1SCF WAS SPECIFIED, SO BFGS WAS NOT USED                 
     SCF FIELD WAS ACHIEVED                                   


                               PM6     CALCULATION
                                                       MOPAC2009 (Version: 9.015L)
                                                       Wed Sep  7 23:03:26 2011




          FINAL HEAT OF FORMATION =       -191.07325 KCAL =    -799.45048 KJ
          VAN DER WAALS AREA      =        364.58 SQUARE ANGSTROMS


          TOTAL ENERGY            =      -4641.38992 EV
          ELECTRONIC ENERGY       =     -41700.61060 EV
          CORE-CORE REPULSION     =      37059.22068 EV
          DIELECTRIC ENERGY       =         -1.42707 EV
          COSMO AREA              =        364.58 SQUARE ANGSTROMS
          COSMO VOLUME            =        447.09 CUBIC ANGSTROMS

          NO. OF FILLED LEVELS    =         74
          MOLECULAR WEIGHT        =        382.455

          MOLECULAR DIMENSIONS (Angstroms)

            Atom       Atom       Distance
            H    48    H    44    10.95399
            H    52    H    38    10.31186
            H    18    O    35     5.68351


          SCF CALCULATIONS        =          2
          COMPUTATION TIME        =          0.609 SECONDS




   ATOM           CHEMICAL             X               Y              Z
  NUMBER           SYMBOL         (ANGSTROMS)     (ANGSTROMS)    (ANGSTROMS)
 
     1       C(     1  C     )    0.7270000  *  -24.733000  *   12.492000  *
     2       C(     2  C     )   -0.0120000  *  -24.059000  *   11.335000  *
     3       C(     3  C     )   -0.8940000  *  -25.064000  *   10.631000  *
     4       C(     4  C     )   -1.4450000  *  -26.080000  *   11.321000  *
     5       C(     5  C     )   -2.3200000  *  -27.083000  *   10.613000  *
     6       C(     6  C     )   -2.0750000  *  -27.047000  *    9.125000  *
     7       C(     7  C     )   -1.4830000  *  -25.973000  *    8.568000  *
     8       C(     8  C     )   -1.2290000  *  -25.935000  *    7.079000  *
     9       C(     9  C     )   -0.9720000  *  -27.350000  *    6.559000  *
    10       C(    10  C     )   -2.2310000  *  -28.169000  *    6.857000  *
    11       C(    11  C     )   -2.4710000  *  -28.146000  *    8.341000  *
    12       O(    12  O     )   -3.0160000  *  -29.093000  *    8.873000  *
    13       O(    13  O     )   -1.1150000  *  -24.920000  *    9.314000  *
    14       C(    14  C     )   -1.2170000  *  -26.228000  *   12.702000  *
    15       O(    15  O     )   -1.7400000  *  -27.148000  *   13.298000  *
    16       C(    16  C     )   -0.3390000  *  -25.265000  *   13.453000  *
    17       H(    17  C     )   -0.6280000  *  -23.248000  *   11.724000  *
    18       H(    18  C     )    0.7130000  *  -23.656000  *   10.629000  *
    19       H(    19  C     )   -2.0980000  *  -28.082000  *   10.989000  *
    20       H(    20  C     )   -2.1000000  *  -25.516000  *    6.575000  *
    21       H(    21  C     )   -0.3590000  *  -25.311000  *    6.877000  *
    22       H(    22  C     )   -3.0850000  *  -27.730000  *    6.340000  *
    23       H(    23  C     )   -2.0870000  *  -29.197000  *    6.523000  *
    24       H(    24  C     )    0.1410000  *  -25.779000  *   14.286000  *
    25       H(    25  C     )   -0.9400000  *  -24.437000  *   13.830000  *
    26       C(    26  C     )   -3.7660000  *  -26.760000  *   10.885000  *
    27       C(    27  C     )   -4.6370000  *  -27.762000  *   11.290000  *
    28       C(    28  C     )   -5.9670000  *  -27.464000  *   11.541000  *
    29       C(    29  C     )   -6.4250000  *  -26.166000  *   11.386000  *
    30       H(    30  C     )   -6.6450000  *  -28.243000  *   11.857000  *
    31       C(    31  C     )   -5.5520000  *  -25.166000  *   10.980000  *
    32       C(    32  C     )   -4.2250000  *  -25.465000  *   10.736000  *
    33       H(    33  C     )   -5.9080000  *  -24.155000  *   10.858000  *
    34       H(    34  C     )   -3.5460000  *  -24.686000  *   10.421000  *
    35       O(    35  O     )   -4.1840000  *  -29.035000  *   11.442000  *
    36       H(    36  O     )   -3.5810000  *  -29.324000  *   10.743000  *
    37       O(    37  O     )   -7.7290000  *  -25.870000  *   11.630000  *
    38       H(    38  O     )   -8.1600000  *  -25.374000  *   10.921000  *
    39       C(    39  C     )    1.5770000  *  -25.891000  *   11.964000  *
    40       H(    40  C     )    1.2310000  *  -26.826000  *   12.405000  *
    41       H(    41  C     )    1.4870000  *  -25.944000  *   10.880000  *
    42       H(    42  C     )    2.6200000  *  -25.727000  *   12.235000  *
    43       C(    43  C     )    1.6180000  *  -23.715000  *   13.207000  *
    44       H(    44  C     )    1.6340000  *  -23.933000  *   14.274000  *
    45       H(    45  C     )    2.6300000  *  -23.775000  *   12.808000  *
    46       H(    46  C     )    1.2220000  *  -22.712000  *   13.046000  *
    47       C(    47  C     )   -0.7170000  *  -27.314000  *    5.050000  *
    48       H(    48  C     )   -1.5420000  *  -27.803000  *    4.531000  *
    49       H(    49  C     )   -0.6430000  *  -26.278000  *    4.720000  *
    50       H(    50  C     )    0.2140000  *  -27.835000  *    4.827000  *
    51       C(    51  C     )    0.2330000  *  -27.960000  *    7.278000  *
    52       H(    52  C     )    1.0270000  *  -28.153000  *    6.556000  *
    53       H(    53  C     )    0.5920000  *  -27.265000  *    8.036000  *
    54       H(    54  C     )   -0.0620000  *  -28.895000  *    7.753000  *

           Empirical Formula: C23 H26 O5  =    54 atoms



              NET ATOMIC CHARGES AND DIPOLE CONTRIBUTIONS

  ATOM NO.   TYPE          CHARGE      No. of ELECS.   s-Pop       p-Pop       
    1          C           0.287180        3.7128     1.06341     2.64941
    2          C          -0.422640        4.4226     1.10803     3.31461
    3          C           0.436873        3.5631     1.10177     2.46136
    4          C          -0.485159        4.4852     1.11007     3.37509
    5          C           0.139764        3.8602     1.04821     2.81202
    6          C          -0.502496        4.5025     1.11019     3.39231
    7          C           0.453422        3.5466     1.10161     2.44497
    8          C          -0.425036        4.4250     1.10873     3.31631
    9          C           0.286250        3.7138     1.06373     2.65002
   10          C          -0.526891        4.5269     1.11868     3.40821
   11          C           0.672481        3.3275     1.07552     2.25200
   12          O          -0.646787        6.6468     1.84121     4.80558
   13          O          -0.341570        6.3416     1.78269     4.55888
   14          C           0.667804        3.3322     1.07455     2.25764
   15          O          -0.632935        6.6329     1.84422     4.78871
   16          C          -0.531302        4.5313     1.11863     3.41267
   17          H           0.206754        0.7932     0.79325
   18          H           0.201205        0.7988     0.79879
   19          H           0.145419        0.8546     0.85458
   20          H           0.209057        0.7909     0.79094
   21          H           0.200855        0.7991     0.79914
   22          H           0.210678        0.7893     0.78932
   23          H           0.204868        0.7951     0.79513
   24          H           0.202968        0.7970     0.79703
   25          H           0.208580        0.7914     0.79142
   26          C          -0.263518        4.2635     1.09774     3.16578
   27          C           0.409936        3.5901     1.05952     2.53055
   28          C          -0.461286        4.4613     1.10189     3.35939
   29          C           0.413979        3.5860     1.05823     2.52780
   30          H           0.207125        0.7929     0.79287
   31          C          -0.418549        4.4185     1.10784     3.31071
   32          C           0.033847        3.9662     1.09604     2.87011
   33          H           0.192651        0.8073     0.80735
   34          H           0.154070        0.8459     0.84593
   35          O          -0.548727        6.5487     1.77837     4.77036
   36          H           0.372788        0.6272     0.62721
   37          O          -0.547638        6.5476     1.77589     4.77174
   38          H           0.374638        0.6254     0.62536
   39          C          -0.558716        4.5587     1.09782     3.46089
   40          H           0.170959        0.8290     0.82904
   41          H           0.167890        0.8321     0.83211
   42          H           0.177175        0.8228     0.82283
   43          C          -0.546655        4.5467     1.09584     3.45082
   44          H           0.173599        0.8264     0.82640
   45          H           0.174478        0.8255     0.82552
   46          H           0.171122        0.8289     0.82888
   47          C          -0.549742        4.5497     1.09691     3.45283
   48          H           0.173747        0.8263     0.82625
   49          H           0.173485        0.8265     0.82652
   50          H           0.175543        0.8245     0.82446
   51          C          -0.558627        4.5586     1.09830     3.46033
   52          H           0.177764        0.8222     0.82224
   53          H           0.167072        0.8329     0.83293
   54          H           0.172249        0.8278     0.82775


          CARTESIAN COORDINATES 

    NO.       ATOM               X         Y         Z

     1         C                  0.7270  -24.7330   12.4920
     2         C                 -0.0120  -24.0590   11.3350
     3         C                 -0.8940  -25.0640   10.6310
     4         C                 -1.4450  -26.0800   11.3210
     5         C                 -2.3200  -27.0830   10.6130
     6         C                 -2.0750  -27.0470    9.1250
     7         C                 -1.4830  -25.9730    8.5680
     8         C                 -1.2290  -25.9350    7.0790
     9         C                 -0.9720  -27.3500    6.5590
    10         C                 -2.2310  -28.1690    6.8570
    11         C                 -2.4710  -28.1460    8.3410
    12         O                 -3.0160  -29.0930    8.8730
    13         O                 -1.1150  -24.9200    9.3140
    14         C                 -1.2170  -26.2280   12.7020
    15         O                 -1.7400  -27.1480   13.2980
    16         C                 -0.3390  -25.2650   13.4530
    17         H                 -0.6280  -23.2480   11.7240
    18         H                  0.7130  -23.6560   10.6290
    19         H                 -2.0980  -28.0820   10.9890
    20         H                 -2.1000  -25.5160    6.5750
    21         H                 -0.3590  -25.3110    6.8770
    22         H                 -3.0850  -27.7300    6.3400
    23         H                 -2.0870  -29.1970    6.5230
    24         H                  0.1410  -25.7790   14.2860
    25         H                 -0.9400  -24.4370   13.8300
    26         C                 -3.7660  -26.7600   10.8850
    27         C                 -4.6370  -27.7620   11.2900
    28         C                 -5.9670  -27.4640   11.5410
    29         C                 -6.4250  -26.1660   11.3860
    30         H                 -6.6450  -28.2430   11.8570
    31         C                 -5.5520  -25.1660   10.9800
    32         C                 -4.2250  -25.4650   10.7360
    33         H                 -5.9080  -24.1550   10.8580
    34         H                 -3.5460  -24.6860   10.4210
    35         O                 -4.1840  -29.0350   11.4420
    36         H                 -3.5810  -29.3240   10.7430
    37         O                 -7.7290  -25.8700   11.6300
    38         H                 -8.1600  -25.3740   10.9210
    39         C                  1.5770  -25.8910   11.9640
    40         H                  1.2310  -26.8260   12.4050
    41         H                  1.4870  -25.9440   10.8800
    42         H                  2.6200  -25.7270   12.2350
    43         C                  1.6180  -23.7150   13.2070
    44         H                  1.6340  -23.9330   14.2740
    45         H                  2.6300  -23.7750   12.8080
    46         H                  1.2220  -22.7120   13.0460
    47         C                 -0.7170  -27.3140    5.0500
    48         H                 -1.5420  -27.8030    4.5310
    49         H                 -0.6430  -26.2780    4.7200
    50         H                  0.2140  -27.8350    4.8270
    51         C                  0.2330  -27.9600    7.2780
    52         H                  1.0270  -28.1530    6.5560
    53         H                  0.5920  -27.2650    8.0360
    54         H                 -0.0620  -28.8950    7.7530


          ATOMIC ORBITAL ELECTRON POPULATIONS

   1.06341   0.88364   0.90130   0.86447   1.10803   1.11377   1.09244   1.10841
   1.10177   0.82477   0.89792   0.73867   1.11007   1.18687   1.11688   1.07135
   1.04821   0.90268   1.03167   0.87767   1.11019   1.22733   1.09032   1.07466
   1.10161   0.77994   0.78646   0.87856   1.10873   1.20558   1.13333   0.97739
   1.06373   0.88359   0.85142   0.91501   1.11868   1.14057   1.19115   1.07649
   1.07552   0.62911   0.76813   0.85476   1.84121   1.51153   1.50595   1.78810
   1.78269   1.75312   1.48558   1.32018   1.07455   0.68080   0.74235   0.83449
   1.84422   1.56842   1.46050   1.75979   1.11863   1.12070   1.15273   1.13925
   0.79325   0.79879   0.85458   0.79094   0.79914   0.78932   0.79513   0.79703
   0.79142   1.09774   1.01699   1.00718   1.14160   1.05952   0.89588   0.76824
   0.86643   1.10189   1.05721   1.07388   1.22830   1.05823   0.75867   0.90660
   0.86252   0.79287   1.10784   1.03172   1.11061   1.16837   1.09604   0.97957
   0.99991   0.89063   0.80735   0.84593   1.77837   1.72170   1.41701   1.63165
   0.62721   1.77589   1.36636   1.80716   1.59822   0.62536   1.09782   1.16311
   1.12189   1.17589   0.82904   0.83211   0.82283   1.09584   1.14851   1.13527
   1.16704   0.82640   0.82552   0.82888   1.09691   1.19375   1.19716   1.06193
   0.82625   0.82652   0.82446   1.09830   1.11799   1.17300   1.16934   0.82224
   0.83293   0.82775

           MULLIKEN POPULATION ANALYSIS



        MULLIKEN POPULATIONS AND CHARGES

      NO.  ATOM   POPULATION      CHARGE
        1    C     3.683929      0.316071
        2    C     4.542422     -0.542422
        3    C     3.540509      0.459491
        4    C     4.535321     -0.535321
        5    C     3.855186      0.144814
        6    C     4.553645     -0.553645
        7    C     3.522397      0.477603
        8    C     4.545539     -0.545539
        9    C     3.685020      0.314980
       10    C     4.658322     -0.658322
       11    C     3.275439      0.724561
       12    O     6.674582     -0.674582
       13    O     6.388597     -0.388597
       14    C     3.279661      0.720339
       15    O     6.658180     -0.658180
       16    C     4.662786     -0.662786
       17    H     0.736156      0.263844
       18    H     0.740894      0.259106
       19    H     0.808676      0.191324
       20    H     0.733170      0.266830
       21    H     0.741523      0.258477
       22    H     0.732275      0.267725
       23    H     0.737236      0.262764
       24    H     0.739676      0.260324
       25    H     0.734654      0.265346
       26    C     4.289717     -0.289717
       27    C     3.563544      0.436456
       28    C     4.535331     -0.535331
       29    C     3.561104      0.438896
       30    H     0.728142      0.271858
       31    C     4.493586     -0.493586
       32    C     3.993464      0.006536
       33    H     0.746529      0.253471
       34    H     0.796070      0.203930
       35    O     6.599638     -0.599638
       36    H     0.591089      0.408911
       37    O     6.599126     -0.599126
       38    H     0.590448      0.409552
       39    C     4.704789     -0.704789
       40    H     0.781294      0.218706
       41    H     0.785067      0.214933
       42    H     0.773731      0.226269
       43    C     4.693606     -0.693606
       44    H     0.777855      0.222145
       45    H     0.777012      0.222988
       46    H     0.780833      0.219167
       47    C     4.696530     -0.696530
       48    H     0.777806      0.222194
       49    H     0.778207      0.221793
       50    H     0.776181      0.223819
       51    C     4.704497     -0.704497
       52    H     0.773314      0.226686
       53    H     0.786077      0.213923
       54    H     0.779619      0.220381



 TOTAL CPU TIME:             0.66 SECONDS

 == MOPAC DONE ==
 *******************************************************************************
 ** Site#:  958            For non-commercial use only         Version 9.015L **
 *******************************************************************************
 ** Cite this work as: MOPAC2009, James J. P. Stewart, Stewart Computational  **
 ** Chemistry, Version 9.015L web: HTTP://OpenMOPAC.net                       **
 *******************************************************************************
 **                                                                           **
 **                                MOPAC2009                                  **
 **                                                                           **
 *******************************************************************************

                            PM6 CALCULATION RESULTS


 *******************************************************************************
 *  CALCULATION DONE:                                Wed Sep  7 23:03:27 2011  *
 *  PM6      - The PM6 Hamiltonian to be used
 *  GEO-OK   - OVERRIDE INTERATOMIC DISTANCE CHECK
 *  MOZYME   - USE LOCALIZED M.O.s IN SOLVING THE SCF EQUATIONS
 *
 *
 *
 *                 CHARGE ON SYSTEM =     0
 *
 *
 *
 *  EPS= 78.400
 *  RSOLV=  1.300
 *  OLDGEO   - PREVIOUS GEOMETRY TO BE USED
 *  T=       - A TIME OF 172800.0 SECONDS REQUESTED
 *  DUMP=N   - RESTART FILE WRITTEN EVERY  4320.000 SECONDS
 *  RELSCF   - DEFAULT SCF CRITERION MULTIPLIED BY   0.100    
 *             (DEFAULT SCFCRT= 0.00010)
 *  THERMO   - THERMODYNAMIC QUANTITIES TO BE CALCULATED
 *******************************************************************************
 PM6 DUMP=4320 MOZYME RELSCF=0.1 THERMO EPS=78.40 RSOLV=1.30 +
 OLDGEO GEO-OK CHARGE=0
 SJ000002349-1_T001S001I001C04_002: Free energy calculation

   ATOM           CHEMICAL             X               Y              Z
  NUMBER           SYMBOL         (ANGSTROMS)     (ANGSTROMS)    (ANGSTROMS)
 
     1       C(     1  C     )    0.7270000  *  -24.733000  *   12.492000  *
     2       C(     2  C     )   -0.0120000  *  -24.059000  *   11.335000  *
     3       C(     3  C     )   -0.8940000  *  -25.064000  *   10.631000  *
     4       C(     4  C     )   -1.4450000  *  -26.080000  *   11.321000  *
     5       C(     5  C     )   -2.3200000  *  -27.083000  *   10.613000  *
     6       C(     6  C     )   -2.0750000  *  -27.047000  *    9.125000  *
     7       C(     7  C     )   -1.4830000  *  -25.973000  *    8.568000  *
     8       C(     8  C     )   -1.2290000  *  -25.935000  *    7.079000  *
     9       C(     9  C     )   -0.9720000  *  -27.350000  *    6.559000  *
    10       C(    10  C     )   -2.2310000  *  -28.169000  *    6.857000  *
    11       C(    11  C     )   -2.4710000  *  -28.146000  *    8.341000  *
    12       O(    12  O     )   -3.0160000  *  -29.093000  *    8.873000  *
    13       O(    13  O     )   -1.1150000  *  -24.920000  *    9.314000  *
    14       C(    14  C     )   -1.2170000  *  -26.228000  *   12.702000  *
    15       O(    15  O     )   -1.7400000  *  -27.148000  *   13.298000  *
    16       C(    16  C     )   -0.3390000  *  -25.265000  *   13.453000  *
    17       H(    17  C     )   -0.6280000  *  -23.248000  *   11.724000  *
    18       H(    18  C     )    0.7130000  *  -23.656000  *   10.629000  *
    19       H(    19  C     )   -2.0980000  *  -28.082000  *   10.989000  *
    20       H(    20  C     )   -2.1000000  *  -25.516000  *    6.575000  *
    21       H(    21  C     )   -0.3590000  *  -25.311000  *    6.877000  *
    22       H(    22  C     )   -3.0850000  *  -27.730000  *    6.340000  *
    23       H(    23  C     )   -2.0870000  *  -29.197000  *    6.523000  *
    24       H(    24  C     )    0.1410000  *  -25.779000  *   14.286000  *
    25       H(    25  C     )   -0.9400000  *  -24.437000  *   13.830000  *
    26       C(    26  C     )   -3.7660000  *  -26.760000  *   10.885000  *
    27       C(    27  C     )   -4.6370000  *  -27.762000  *   11.290000  *
    28       C(    28  C     )   -5.9670000  *  -27.464000  *   11.541000  *
    29       C(    29  C     )   -6.4250000  *  -26.166000  *   11.386000  *
    30       H(    30  C     )   -6.6450000  *  -28.243000  *   11.857000  *
    31       C(    31  C     )   -5.5520000  *  -25.166000  *   10.980000  *
    32       C(    32  C     )   -4.2250000  *  -25.465000  *   10.736000  *
    33       H(    33  C     )   -5.9080000  *  -24.155000  *   10.858000  *
    34       H(    34  C     )   -3.5460000  *  -24.686000  *   10.421000  *
    35       O(    35  O     )   -4.1840000  *  -29.035000  *   11.442000  *
    36       H(    36  O     )   -3.5810000  *  -29.324000  *   10.743000  *
    37       O(    37  O     )   -7.7290000  *  -25.870000  *   11.630000  *
    38       H(    38  O     )   -8.1600000  *  -25.374000  *   10.921000  *
    39       C(    39  C     )    1.5770000  *  -25.891000  *   11.964000  *
    40       H(    40  C     )    1.2310000  *  -26.826000  *   12.405000  *
    41       H(    41  C     )    1.4870000  *  -25.944000  *   10.880000  *
    42       H(    42  C     )    2.6200000  *  -25.727000  *   12.235000  *
    43       C(    43  C     )    1.6180000  *  -23.715000  *   13.207000  *
    44       H(    44  C     )    1.6340000  *  -23.933000  *   14.274000  *
    45       H(    45  C     )    2.6300000  *  -23.775000  *   12.808000  *
    46       H(    46  C     )    1.2220000  *  -22.712000  *   13.046000  *
    47       C(    47  C     )   -0.7170000  *  -27.314000  *    5.050000  *
    48       H(    48  C     )   -1.5420000  *  -27.803000  *    4.531000  *
    49       H(    49  C     )   -0.6430000  *  -26.278000  *    4.720000  *
    50       H(    50  C     )    0.2140000  *  -27.835000  *    4.827000  *
    51       C(    51  C     )    0.2330000  *  -27.960000  *    7.278000  *
    52       H(    52  C     )    1.0270000  *  -28.153000  *    6.556000  *
    53       H(    53  C     )    0.5920000  *  -27.265000  *    8.036000  *
    54       H(    54  C     )   -0.0620000  *  -28.895000  *    7.753000  *
 


          CARTESIAN COORDINATES 

    NO.       ATOM         X         Y         Z

     1         C        0.7270  -24.7330   12.4920
     2         C       -0.0120  -24.0590   11.3350
     3         C       -0.8940  -25.0640   10.6310
     4         C       -1.4450  -26.0800   11.3210
     5         C       -2.3200  -27.0830   10.6130
     6         C       -2.0750  -27.0470    9.1250
     7         C       -1.4830  -25.9730    8.5680
     8         C       -1.2290  -25.9350    7.0790
     9         C       -0.9720  -27.3500    6.5590
    10         C       -2.2310  -28.1690    6.8570
    11         C       -2.4710  -28.1460    8.3410
    12         O       -3.0160  -29.0930    8.8730
    13         O       -1.1150  -24.9200    9.3140
    14         C       -1.2170  -26.2280   12.7020
    15         O       -1.7400  -27.1480   13.2980
    16         C       -0.3390  -25.2650   13.4530
    17         H       -0.6280  -23.2480   11.7240
    18         H        0.7130  -23.6560   10.6290
    19         H       -2.0980  -28.0820   10.9890
    20         H       -2.1000  -25.5160    6.5750
    21         H       -0.3590  -25.3110    6.8770
    22         H       -3.0850  -27.7300    6.3400
    23         H       -2.0870  -29.1970    6.5230
    24         H        0.1410  -25.7790   14.2860
    25         H       -0.9400  -24.4370   13.8300
    26         C       -3.7660  -26.7600   10.8850
    27         C       -4.6370  -27.7620   11.2900
    28         C       -5.9670  -27.4640   11.5410
    29         C       -6.4250  -26.1660   11.3860
    30         H       -6.6450  -28.2430   11.8570
    31         C       -5.5520  -25.1660   10.9800
    32         C       -4.2250  -25.4650   10.7360
    33         H       -5.9080  -24.1550   10.8580
    34         H       -3.5460  -24.6860   10.4210
    35         O       -4.1840  -29.0350   11.4420
    36         H       -3.5810  -29.3240   10.7430
    37         O       -7.7290  -25.8700   11.6300
    38         H       -8.1600  -25.3740   10.9210
    39         C        1.5770  -25.8910   11.9640
    40         H        1.2310  -26.8260   12.4050
    41         H        1.4870  -25.9440   10.8800
    42         H        2.6200  -25.7270   12.2350
    43         C        1.6180  -23.7150   13.2070
    44         H        1.6340  -23.9330   14.2740
    45         H        2.6300  -23.7750   12.8080
    46         H        1.2220  -22.7120   13.0460
    47         C       -0.7170  -27.3140    5.0500
    48         H       -1.5420  -27.8030    4.5310
    49         H       -0.6430  -26.2780    4.7200
    50         H        0.2140  -27.8350    4.8270
    51         C        0.2330  -27.9600    7.2780
    52         H        1.0270  -28.1530    6.5560
    53         H        0.5920  -27.2650    8.0360
    54         H       -0.0620  -28.8950    7.7530

 General Reference for PM6:
 "Optimization of Parameters for Semiempirical Methods V: Modification of NDDO Approximations
 and Application to 70 Elements", J. J. P. Stewart, J. Mol. Mod., 13, 1173-1213 (2007)
 URL: http://www.springerlink.com/content/ar33482301010477/fulltext.pdf

           Empirical Formula: C23 H26 O5  =    54 atoms



      MOLECULAR POINT GROUP   :   C1  
 
   NUMBER AND TYPES OF BONDS IDENTIFIED
 
         SIGMA BONDS               57
         LONE PAIRS                10
         NORMAL PI BONDS            6
         AROMATIC RING PI BONDS     1
 
  SCF CRITERION =    0.1000E-02


          HEAT OF FORMATION =    -191.073387 KCALS/MOLE


          INTERNAL COORDINATE DERIVATIVES

   NUMBER  ATOM       BOND         ANGLE      DIHEDRAL

     1       C
     2       C     10.913853
     3       C      8.311841     2.755449
     4       C    -28.615536   -21.426741    12.830431
     5       C     37.885159    22.587022   -23.475272
     6       C    -42.191436   -16.810860    24.755729
     7       C     -8.525839     6.768170    -4.132142
     8       C     16.497613    43.192748   -19.220685
     9       C    -23.195296   -39.492100    17.317312
    10       C     18.326273    26.776758   -20.691025
    11       C     -3.281759    -5.850835    12.268665
    12       O     12.321286     9.057389    -5.188830
    13       O    -13.860882   -39.704903    10.413446
    14       C     16.662483   -40.295975   -13.626829
    15       O    -38.594923    56.227157    29.219005
    16       C     39.079135     5.661618   -28.595078
    17       H     25.941766   -22.172228   -18.900164
    18       H     -7.982897    -8.832879     8.018028
    19       H    -10.577834     9.697643    -9.198816
    20       H     -9.006721    12.075497     8.892118
    21       H     18.141916   -12.436381     4.879610
    22       H    -15.595870     4.559504    -5.680873
    23       H     -6.796356    14.284875     7.110269
    24       H    -12.002689    -8.240679    -4.938258
    25       H     -2.647139   -14.142721     3.903460
    26       C     12.785167     1.913476    -7.159525
    27       C      1.328161     5.680536   -13.885876
    28       C      5.737727    11.647809    21.457670
    29       C     -2.963026    -0.005989     1.731773
    30       H     11.949668   -28.723528   -18.870406
    31       C     -4.200016     5.064440    10.246316
    32       C      1.721496    -7.693443    -4.008660
    33       H    -14.564989    17.349935    -5.894663
    34       H     -7.479516     8.992194    -1.180391
    35       O     -6.309674     5.405411    -3.666432
    36       H     -3.166986     7.969943     3.500216
    37       O     11.109051   -18.183209   -27.326793
    38       H     -3.028527     1.047657    23.434792
    39       C     14.494445   -15.269270   -17.705812
    40       H    -14.792781     5.848813    -0.105021
    41       H      0.036578     1.092316    -2.471869
    42       H      5.056640    -5.027497     9.213381
    43       C      3.702544    -4.370800    10.225971
    44       H      4.205733    -3.434594     8.232875
    45       H     -6.866697    -5.813434    -3.198256
    46       H      5.113257     7.283398    -0.345446
    47       C      2.216647     8.581228     2.339939
    48       H      2.526979     9.436095    -1.650659
    49       H      1.273360     1.380050    -8.687960
    50       H     -7.257265    -1.864440     6.657687
    51       C     -7.301332     0.114026     7.556747
    52       H     -4.948052    -1.523644     8.002093
    53       H     -1.986187     0.425233    -1.853998
    54       H      8.005168     1.179649     5.351209


          GRADIENT NORM = 193.07649



 ** GRADIENT IS TOO LARGE TO ALLOW FORCE MATRIX TO BE CALCULATED, (LIMIT=10) **



 EITHER ADD 'LET' OR REDUCE GRADIENT
 USING 'TS' OR OTHER GEOMETRY OPTIMIZER



 TOTAL CPU TIME:             1.45 SECONDS

 == MOPAC DONE ==
