 *******************************************************************************
 ** Site#:  958            For non-commercial use only         Version 9.015L **
 *******************************************************************************
 ** Cite this work as: MOPAC2009, James J. P. Stewart, Stewart Computational  **
 ** Chemistry, Version 9.015L web: HTTP://OpenMOPAC.net                       **
 *******************************************************************************
 **                                                                           **
 **                                MOPAC2009                                  **
 **                                                                           **
 *******************************************************************************

                            PM6 CALCULATION RESULTS


 *******************************************************************************
 *  CALCULATION DONE:                                Tue Sep  6 16:25:27 2011  *
 *  PM6      - The PM6 Hamiltonian to be used
 *
 *
 *
 *                 CHARGE ON SYSTEM =     0
 *
 *
 *
 *  EPS= 78.400
 *  RSOLV=  1.300
 *  LET      - OVERRIDE SOME SAFETY CHECKS
 *  XYZ      - CARTESIAN COORDINATE SYSTEM TO BE USED
 *  T=       - A TIME OF  0.3E+08 SECONDS REQUESTED
 *  DUMP=N   - RESTART FILE WRITTEN EVERY  4320.000 SECONDS
 *  DDMIN=   - MINIMUM TRUST RADIUS  0.000 ANG/RAD
 *  GNORM=   - EXIT WHEN GRADIENT NORM DROPS BELOW .150    
 *  RELSCF   - DEFAULT SCF CRITERION MULTIPLIED BY   0.100    
 *             (DEFAULT SCFCRT= 0.00010)
 *  SYBYL    - OUTPUT SYBYL FILE
 *  MULLIK   - THE MULLIKEN ANALYSIS TO BE PERFORMED
 *******************************************************************************
 PM6 T=31535725 DUMP=4320 XYZ EPS=78.40 RSOLV=1.30 MULLIK SYBYL +
 CHARGE=0 RELSCF=0.1 LET DDMIN=0.0 GNORM=0.15
 SJ000001677-1_T001S001I001C01: Geometry optimization step

   ATOM   CHEMICAL          X               Y              Z
  NUMBER   SYMBOL      (ANGSTROMS)     (ANGSTROMS)    (ANGSTROMS)
 
     1       C          0.0020000  *   -0.004000  *    0.002000  *
     2       C          0.0240000  *   -0.744000  *    1.279000  *
     3       O          0.2730000  *   -0.166000  *    2.319000  *
     4       C         -0.2600000  *   -2.196000  *    1.278000  *
     5       C         -0.5230000  *   -2.878000  *    2.458000  *
     6       C         -0.7850000  *   -4.240000  *    2.421000  *
     7       C         -0.7860000  *   -4.921000  *    1.220000  *
     8       C         -0.5250000  *   -4.253000  *    0.032000  *
     9       C         -0.2620000  *   -2.890000  *    0.053000  *
    10       C          0.0200000  *   -2.143000  *   -1.192000  *
    11       O          0.2640000  *   -2.737000  *   -2.223000  *
    12       C         -0.0050000  *   -0.665000  *   -1.168000  *
    13      Br         -0.0420000  *    0.302000  *   -2.792000  *
    14       H         -0.5230000  *   -2.351000  *    3.401000  *
    15       H         -0.9900000  *   -4.771000  *    3.339000  *
    16       H         -0.9910000  *   -5.981000  *    1.204000  *
    17       H         -0.5270000  *   -4.790000  *   -0.905000  *
    18       C         -0.0180000  *    1.503000  *    0.010000  *
    19       H          1.0040000  *    1.880000  *    0.003000  *
    20       H         -0.5450000  *    1.864000  *   -0.873000  *
    21       H         -0.5290000  *    1.854000  *    0.907000  *
 


          CARTESIAN COORDINATES 

    NO.       ATOM         X         Y         Z

     1         C        0.0020   -0.0040    0.0020
     2         C        0.0240   -0.7440    1.2790
     3         O        0.2730   -0.1660    2.3190
     4         C       -0.2600   -2.1960    1.2780
     5         C       -0.5230   -2.8780    2.4580
     6         C       -0.7850   -4.2400    2.4210
     7         C       -0.7860   -4.9210    1.2200
     8         C       -0.5250   -4.2530    0.0320
     9         C       -0.2620   -2.8900    0.0530
    10         C        0.0200   -2.1430   -1.1920
    11         O        0.2640   -2.7370   -2.2230
    12         C       -0.0050   -0.6650   -1.1680
    13        Br       -0.0420    0.3020   -2.7920
    14         H       -0.5230   -2.3510    3.4010
    15         H       -0.9900   -4.7710    3.3390
    16         H       -0.9910   -5.9810    1.2040
    17         H       -0.5270   -4.7900   -0.9050
    18         C       -0.0180    1.5030    0.0100
    19         H        1.0040    1.8800    0.0030
    20         H       -0.5450    1.8640   -0.8730
    21         H       -0.5290    1.8540    0.9070

 General Reference for PM6:
 "Optimization of Parameters for Semiempirical Methods V: Modification of NDDO Approximations
 and Application to 70 Elements", J. J. P. Stewart, J. Mol. Mod., 13, 1173-1213 (2007)
 URL: http://www.springerlink.com/content/ar33482301010477/fulltext.pdf

           Empirical Formula: C11 H7 O2 Br  =    21 atoms



      MOLECULAR POINT GROUP   :   C1  


      RHF CALCULATION, NO. OF DOUBLY OCCUPIED LEVELS =   35

      Geometry optimization using EF
  SCF CRITERION =    0.1000E-04

          DIAGONAL MATRIX USED AS START HESSIAN

 CYCLE:     1 TIME:   0.063 TIME LEFT: 16.53W  GRAD.:    79.631 HEAT:-27.95346
 CYCLE:     2 TIME:   0.040 TIME LEFT: 16.53W  GRAD.:   280.167 HEAT:-14.74263
 CYCLE:     3 TIME:   0.039 TIME LEFT: 16.53W  GRAD.:   192.188 HEAT:-22.52803
 CYCLE:     4 TIME:   0.040 TIME LEFT: 16.53W  GRAD.:   320.223 HEAT:-13.91198
 CYCLE:     5 TIME:   0.039 TIME LEFT: 16.53W  GRAD.:   366.267 HEAT:-8.496141
 CYCLE:     6 TIME:   0.040 TIME LEFT: 16.53W  GRAD.:   263.958 HEAT:-19.22795
 CYCLE:     7 TIME:   0.040 TIME LEFT: 16.53W  GRAD.:   235.393 HEAT:-19.61673
 CYCLE:     8 TIME:   0.040 TIME LEFT: 16.53W  GRAD.:   266.022 HEAT:-17.63088
 CYCLE:     9 TIME:   0.039 TIME LEFT: 16.53W  GRAD.:   271.057 HEAT:-16.15631
 CYCLE:    10 TIME:   0.040 TIME LEFT: 16.53W  GRAD.:   267.782 HEAT:-17.59479
 CYCLE:    11 TIME:   0.039 TIME LEFT: 16.53W  GRAD.:   290.493 HEAT:-16.58863
 CYCLE:    12 TIME:   0.039 TIME LEFT: 16.53W  GRAD.:   261.492 HEAT:-19.15517
 CYCLE:    13 TIME:   0.039 TIME LEFT: 16.53W  GRAD.:   311.256 HEAT:-12.15312
 CYCLE:    14 TIME:   0.039 TIME LEFT: 16.53W  GRAD.:   247.467 HEAT:-18.52607
 CYCLE:    15 TIME:   0.039 TIME LEFT: 16.53W  GRAD.:   324.991 HEAT:-17.43157
 CYCLE:    16 TIME:   0.040 TIME LEFT: 16.53W  GRAD.:   294.354 HEAT:-17.91088
 CYCLE:    17 TIME:   0.039 TIME LEFT: 16.53W  GRAD.:   292.943 HEAT:-15.58829
 CYCLE:    18 TIME:   0.040 TIME LEFT: 16.53W  GRAD.:   192.155 HEAT:-19.77499
 CYCLE:    19 TIME:   0.039 TIME LEFT: 16.53W  GRAD.:   280.841 HEAT:-20.24148
 CYCLE:    20 TIME:   0.039 TIME LEFT: 16.53W  GRAD.:   199.097 HEAT:-20.10411
 CYCLE:    21 TIME:   0.042 TIME LEFT: 16.53W  GRAD.:   186.928 HEAT:-24.96217
 CYCLE:    22 TIME:   0.039 TIME LEFT: 16.53W  GRAD.:   322.772 HEAT:-13.50683
 CYCLE:    23 TIME:   0.038 TIME LEFT: 16.53W  GRAD.:   251.527 HEAT:-19.59709
 CYCLE:    24 TIME:   0.039 TIME LEFT: 16.53W  GRAD.:   192.606 HEAT:-25.04909
 CYCLE:    25 TIME:   0.041 TIME LEFT: 16.53W  GRAD.:   146.196 HEAT:-26.73903
 CYCLE:    26 TIME:   0.042 TIME LEFT: 16.53W  GRAD.:   229.223 HEAT:-21.63834
 CYCLE:    27 TIME:   0.039 TIME LEFT: 16.53W  GRAD.:    49.735 HEAT:-32.72498
 CYCLE:    28 TIME:   0.040 TIME LEFT: 16.53W  GRAD.:   178.126 HEAT:-22.58229
 CYCLE:    29 TIME:   0.039 TIME LEFT: 16.53W  GRAD.:    32.350 HEAT:-33.38345
 CYCLE:    30 TIME:   0.038 TIME LEFT: 16.53W  GRAD.:   149.527 HEAT:-25.12642
 CYCLE:    31 TIME:   0.040 TIME LEFT: 16.53W  GRAD.:    22.107 HEAT:-33.39362
 CYCLE:    32 TIME:   0.039 TIME LEFT: 16.53W  GRAD.:    67.813 HEAT:-31.42764
 CYCLE:    33 TIME:   0.038 TIME LEFT: 16.53W  GRAD.:    29.696 HEAT:-33.50759
 CYCLE:    34 TIME:   0.039 TIME LEFT: 16.53W  GRAD.:   107.550 HEAT:-28.52992
 CYCLE:    35 TIME:   0.040 TIME LEFT: 16.53W  GRAD.:    23.624 HEAT:-33.50361
 CYCLE:    36 TIME:   0.038 TIME LEFT: 16.53W  GRAD.:    93.903 HEAT:-29.71977
 CYCLE:    37 TIME:   0.039 TIME LEFT: 16.53W  GRAD.:    13.001 HEAT:-33.73257
 CYCLE:    38 TIME:   0.037 TIME LEFT: 16.53W  GRAD.:    41.001 HEAT:-32.88722
 CYCLE:    39 TIME:   0.036 TIME LEFT: 16.53W  GRAD.:     7.123 HEAT:-33.79326
 CYCLE:    40 TIME:   0.036 TIME LEFT: 16.53W  GRAD.:    29.765 HEAT:-33.46522
 CYCLE:    41 TIME:   0.036 TIME LEFT: 16.53W  GRAD.:     2.776 HEAT:-33.81799
 CYCLE:    42 TIME:   0.036 TIME LEFT: 16.53W  GRAD.:     7.604 HEAT:-33.77745
 CYCLE:    43 TIME:   0.035 TIME LEFT: 16.53W  GRAD.:     1.439 HEAT:-33.82380
 CYCLE:    44 TIME:   0.037 TIME LEFT: 16.53W  GRAD.:     2.388 HEAT:-33.82735
 CYCLE:    45 TIME:   0.036 TIME LEFT: 16.53W  GRAD.:     1.299 HEAT:-33.83592
 CYCLE:    46 TIME:   0.038 TIME LEFT: 16.53W  GRAD.:     4.031 HEAT:-33.84410
 CYCLE:    47 TIME:   0.037 TIME LEFT: 16.53W  GRAD.:     6.133 HEAT:-33.85145
 CYCLE:    48 TIME:   0.036 TIME LEFT: 16.53W  GRAD.:     4.061 HEAT:-33.86955
 CYCLE:    49 TIME:   0.036 TIME LEFT: 16.53W  GRAD.:     6.734 HEAT:-33.93001
 CYCLE:    50 TIME:   0.037 TIME LEFT: 16.53W  GRAD.:     6.155 HEAT:-33.95908
 CYCLE:    51 TIME:   0.036 TIME LEFT: 16.53W  GRAD.:     5.430 HEAT:-33.95349
 CYCLE:    52 TIME:   0.036 TIME LEFT: 16.53W  GRAD.:     4.987 HEAT:-34.03714
 CYCLE:    53 TIME:   0.038 TIME LEFT: 16.53W  GRAD.:    26.569 HEAT:-33.63244
 CYCLE:    54 TIME:   0.039 TIME LEFT: 16.53W  GRAD.:     8.552 HEAT:-34.03625
 CYCLE:    55 TIME:   0.036 TIME LEFT: 16.53W  GRAD.:     7.874 HEAT:-34.08647
 CYCLE:    56 TIME:   0.038 TIME LEFT: 16.53W  GRAD.:     2.760 HEAT:-34.14654
 CYCLE:    57 TIME:   0.038 TIME LEFT: 16.53W  GRAD.:     4.444 HEAT:-34.10464
 CYCLE:    58 TIME:   0.036 TIME LEFT: 16.53W  GRAD.:     4.106 HEAT:-34.11230
 CYCLE:    59 TIME:   0.035 TIME LEFT: 16.53W  GRAD.:     3.881 HEAT:-34.12149
 CYCLE:    60 TIME:   0.037 TIME LEFT: 16.53W  GRAD.:     3.280 HEAT:-34.13592
 CYCLE:    61 TIME:   0.036 TIME LEFT: 16.53W  GRAD.:     2.230 HEAT:-34.15074
 CYCLE:    62 TIME:   0.036 TIME LEFT: 16.53W  GRAD.:     1.607 HEAT:-34.15498
 CYCLE:    63 TIME:   0.037 TIME LEFT: 16.53W  GRAD.:     1.430 HEAT:-34.16228
 CYCLE:    64 TIME:   0.037 TIME LEFT: 16.53W  GRAD.:     1.229 HEAT:-34.15698
 CYCLE:    65 TIME:   0.037 TIME LEFT: 16.53W  GRAD.:     0.951 HEAT:-34.15888
 CYCLE:    66 TIME:   0.038 TIME LEFT: 16.53W  GRAD.:     0.944 HEAT:-34.15728
 CYCLE:    67 TIME:   0.037 TIME LEFT: 16.53W  GRAD.:     0.779 HEAT:-34.15180
 CYCLE:    68 TIME:   0.037 TIME LEFT: 16.53W  GRAD.:     0.849 HEAT:-34.15288
 CYCLE:    69 TIME:   0.037 TIME LEFT: 16.53W  GRAD.:     0.549 HEAT:-34.15335
 CYCLE:    70 TIME:   0.037 TIME LEFT: 16.53W  GRAD.:     0.840 HEAT:-34.15713
 CYCLE:    71 TIME:   0.036 TIME LEFT: 16.53W  GRAD.:     0.683 HEAT:-34.15863
 CYCLE:    72 TIME:   0.037 TIME LEFT: 16.53W  GRAD.:     0.729 HEAT:-34.16119
 CYCLE:    73 TIME:   0.037 TIME LEFT: 16.53W  GRAD.:     0.542 HEAT:-34.17194
 CYCLE:    74 TIME:   0.037 TIME LEFT: 16.53W  GRAD.:     0.440 HEAT:-34.16781
 CYCLE:    75 TIME:   0.035 TIME LEFT: 16.53W  GRAD.:     0.235 HEAT:-34.16925
 CYCLE:    76 TIME:   0.036 TIME LEFT: 16.53W  GRAD.:     0.219 HEAT:-34.17512
 CYCLE:    77 TIME:   0.036 TIME LEFT: 16.53W  GRAD.:     0.261 HEAT:-34.16927
 CYCLE:    78 TIME:   0.036 TIME LEFT: 16.53W  GRAD.:     0.178 HEAT:-34.17522
 CYCLE:    79 TIME:   0.036 TIME LEFT: 16.53W  GRAD.:     0.517 HEAT:-34.16621
 CYCLE:    80 TIME:   0.036 TIME LEFT: 16.53W  GRAD.:     0.244 HEAT:-34.17460
 CYCLE:    81 TIME:   0.036 TIME LEFT: 16.53W  GRAD.:     0.173 HEAT:-34.17439
 CYCLE:    82 TIME:   0.036 TIME LEFT: 16.53W  GRAD.:     0.203 HEAT:-34.16592
 CYCLE:    83 TIME:   0.037 TIME LEFT: 16.53W  GRAD.:     0.215 HEAT:-34.16489
 CYCLE:    84 TIME:   0.036 TIME LEFT: 16.53W  GRAD.:     0.153 HEAT:-34.18143
 CYCLE:    85 TIME:   0.036 TIME LEFT: 16.53W  GRAD.:     0.165 HEAT:-34.18058
 CYCLE:    86 TIME:   0.035 TIME LEFT: 16.53W  GRAD.:     0.161 HEAT:-34.18045
 CYCLE:    87 TIME:   0.037 TIME LEFT: 16.53W  GRAD.:     0.251 HEAT:-34.17110
 CYCLE:    88 TIME:   0.035 TIME LEFT: 16.53W  GRAD.:     0.191 HEAT:-34.18636
 CYCLE:    89 TIME:   0.036 TIME LEFT: 16.53W  GRAD.:     0.156 HEAT:-34.18012
 CYCLE:    90 TIME:   0.035 TIME LEFT: 16.53W  GRAD.:     0.135 HEAT:-34.18447

     RMS GRADIENT =  0.13519  IS LESS THAN CUTOFF =  0.15000



 -------------------------------------------------------------------------------
 PM6 T=31535725 DUMP=4320 XYZ EPS=78.40 RSOLV=1.30 MULLIK SYBYL +
 CHARGE=0 RELSCF=0.1 LET DDMIN=0.0 GNORM=0.15
 SJ000001677-1_T001S001I001C01: Geometry optimization step



     GEOMETRY OPTIMISED USING EIGENVECTOR FOLLOWING (EF).     
     SCF FIELD WAS ACHIEVED                                   


                               PM6     CALCULATION
                                                       MOPAC2009 (Version: 9.015L)
                                                       Tue Sep  6 16:25:31 2011




          FINAL HEAT OF FORMATION =        -34.18447 KCAL =    -143.02782 KJ
          VAN DER WAALS AREA      =        214.71 SQUARE ANGSTROMS


          TOTAL ENERGY            =      -2252.29980 EV
          ELECTRONIC ENERGY       =      -3033.33043 EV  POINT GROUP:     C1  
          CORE-CORE REPULSION     =        781.03063 EV
          DIELECTRIC ENERGY       =         -0.51472 EV
          COSMO AREA              =        214.71 SQUARE ANGSTROMS
          COSMO VOLUME            =        228.65 CUBIC ANGSTROMS

          IONIZATION POTENTIAL    =         10.411822 EV
          HOMO LUMO ENERGIES (EV) =        -10.412 -2.099
          NO. OF FILLED LEVELS    =         35
          MOLECULAR WEIGHT        =        251.079

          MOLECULAR DIMENSIONS (Angstroms)

            Atom       Atom       Distance
           Br    13    H    15     8.04406
            H    21    H    17     6.47559
            H    20    H    19     1.75102


          SCF CALCULATIONS        =         92
          COMPUTATION TIME        =          3.451 SECONDS




   ATOM   CHEMICAL          X               Y              Z
  NUMBER   SYMBOL      (ANGSTROMS)     (ANGSTROMS)    (ANGSTROMS)
 
     1       C         -0.0090416  *    0.030427  *   -0.002457  *
     2       C         -0.0361451  *   -0.713167  *    1.322969  *
     3       O          0.1400451  *   -0.117021  *    2.367321  *
     4       C         -0.2831145  *   -2.178943  *    1.273622  *
     5       C         -0.5161392  *   -2.874596  *    2.460878  *
     6       C         -0.7469723  *   -4.260415  *    2.429312  *
     7       C         -0.7378884  *   -4.942233  *    1.216326  *
     8       C         -0.4995489  *   -4.247637  *    0.017806  *
     9       C         -0.2763196  *   -2.870697  *    0.042558  *
    10       C         -0.0327098  *   -2.146839  *   -1.238077  *
    11       O          0.1236694  *   -2.734674  *   -2.292341  *
    12       C         -0.0006244  *   -0.658239  *   -1.156839  *
    13      Br          0.0508278  *    0.236215  *   -2.832140  *
    14       H         -0.5191840  *   -2.340396  *    3.417476  *
    15       H         -0.9323698  *   -4.798106  *    3.364296  *
    16       H         -0.9149486  *   -6.021898  *    1.188705  *
    17       H         -0.4901784  *   -4.787891  *   -0.935487  *
    18       C          0.0115097  *    1.505836  *    0.082842  *
    19       H          0.8905104  *    1.938923  *   -0.429599  *
    20       H         -0.8748965  *    1.956937  *   -0.401301  *
    21       H          0.0334229  *    1.881582  *    1.119941  *

           Empirical Formula: C11 H7 O2 Br  =    21 atoms



      MOLECULAR POINT GROUP   :   C1  


                  EIGENVALUES  
 -32.67804 -32.53138 -30.74527 -29.80826 -27.51609 -26.91120 -26.78609 -25.44297
 -24.15136 -22.55001 -21.66926 -20.94285 -18.80105 -18.18156 -17.11348 -16.54016
 -16.03521 -15.91288 -15.51352 -15.42946 -15.12163 -14.62680 -14.54053 -14.25927
 -13.68383 -13.49838 -13.18259 -12.73335 -12.50067 -11.48108 -11.25779 -10.89072
 -10.68304 -10.42691 -10.41182  -2.09929  -0.75975  -0.66528  -0.51210   0.36336
   0.96110   1.83941   2.02424   2.16985   2.64384   3.06561   3.11214   3.57788
   3.75651   3.88785   4.19001   4.23490   4.27502   4.44354   4.50010   4.90206
   5.33190   5.37939   5.42198   5.69522   5.71268   5.79978   6.36254 112.65848
 112.80006 112.84280 112.84886 112.94877


              NET ATOMIC CHARGES AND DIPOLE CONTRIBUTIONS

  ATOM NO.   TYPE          CHARGE      No. of ELECS.   s-Pop       p-Pop       d-Pop       
    1          C           0.076720        3.9233     1.12593     2.79735
    2          C           0.524072        3.4759     1.11471     2.36122
    3          O          -0.496055        6.4961     1.85262     4.64344
    4          C          -0.153388        4.1534     1.10451     3.04888
    5          C          -0.074426        4.0744     1.11543     2.95900
    6          C          -0.124557        4.1246     1.11650     3.00806
    7          C          -0.121289        4.1213     1.11664     3.00465
    8          C          -0.077077        4.0771     1.11543     2.96165
    9          C          -0.153749        4.1537     1.10593     3.04782
   10          C           0.583741        3.4163     1.09569     2.32057
   11          O          -0.525294        6.5253     1.85211     4.67318
   12          C          -0.221492        4.2215     1.13452     3.08697
   13         Br          -0.046852        7.0469     1.98733     5.05087     0.00865
   14          H           0.180668        0.8193     0.81933
   15          H           0.178962        0.8210     0.82104
   16          H           0.178495        0.8215     0.82151
   17          H           0.181761        0.8182     0.81824
   18          C          -0.512556        4.5126     1.08281     3.42975
   19          H           0.203924        0.7961     0.79608
   20          H           0.205099        0.7949     0.79490
   21          H           0.193295        0.8067     0.80671
 DIPOLE           X         Y         Z       TOTAL
 POINT-CHG.    -1.635    -1.855     3.931     4.644
 HYBRID         0.121     0.454    -0.580     0.746
 SUM           -1.514    -1.402     3.351     3.935


          CARTESIAN COORDINATES 

    NO.       ATOM               X         Y         Z

     1         C                 -0.0090    0.0304   -0.0025
     2         C                 -0.0361   -0.7132    1.3230
     3         O                  0.1400   -0.1170    2.3673
     4         C                 -0.2831   -2.1789    1.2736
     5         C                 -0.5161   -2.8746    2.4609
     6         C                 -0.7470   -4.2604    2.4293
     7         C                 -0.7379   -4.9422    1.2163
     8         C                 -0.4995   -4.2476    0.0178
     9         C                 -0.2763   -2.8707    0.0426
    10         C                 -0.0327   -2.1468   -1.2381
    11         O                  0.1237   -2.7347   -2.2923
    12         C                 -0.0006   -0.6582   -1.1568
    13        Br                  0.0508    0.2362   -2.8321
    14         H                 -0.5192   -2.3404    3.4175
    15         H                 -0.9324   -4.7981    3.3643
    16         H                 -0.9149   -6.0219    1.1887
    17         H                 -0.4902   -4.7879   -0.9355
    18         C                  0.0115    1.5058    0.0828
    19         H                  0.8905    1.9389   -0.4296
    20         H                 -0.8749    1.9569   -0.4013
    21         H                  0.0334    1.8816    1.1199


          ATOMIC ORBITAL ELECTRON POPULATIONS

   1.12593   0.85132   0.98412   0.96191   1.11471   0.63625   0.87568   0.84929
   1.85262   1.45022   1.73716   1.45606   1.10451   1.07059   0.98809   0.99020
   1.11543   0.92543   0.99386   1.03971   1.11650   0.95711   0.99415   1.05681
   1.11664   0.95419   1.08212   0.96834   1.11543   0.92716   0.97432   1.06016
   1.10593   1.06840   1.00260   0.97682   1.09569   0.62791   0.85466   0.83800
   1.85211   1.47666   1.75025   1.44627   1.13452   1.14813   1.00499   0.93384
   1.98733   1.97177   1.79227   1.28683   0.00087   0.00096   0.00334   0.00315
   0.00033   0.81933   0.82104   0.82151   0.81824   1.08281   1.21239   0.99721
   1.22015   0.79608   0.79490   0.80671

           MULLIKEN POPULATION ANALYSIS



        MULLIKEN POPULATIONS AND CHARGES

      NO.  ATOM   POPULATION      CHARGE
        1    C     3.939131      0.060869
        2    C     3.448881      0.551119
        3    O     6.519562     -0.519562
        4    C     4.167777     -0.167777
        5    C     4.117095     -0.117095
        6    C     4.178745     -0.178745
        7    C     4.175275     -0.175275
        8    C     4.120049     -0.120049
        9    C     4.169263     -0.169263
       10    C     3.393442      0.606558
       11    O     6.552381     -0.552381
       12    C     4.399156     -0.399156
       13   Br     6.842478      0.157522
       14    H     0.764481      0.235519
       15    H     0.766420      0.233580
       16    H     0.767017      0.232983
       17    H     0.763130      0.236870
       18    C     4.664302     -0.664302
       19    H     0.749663      0.250337
       20    H     0.747667      0.252333
       21    H     0.754085      0.245915



 TOTAL CPU TIME:             3.46 SECONDS

 == MOPAC DONE ==
 *******************************************************************************
 ** Site#:  958            For non-commercial use only         Version 9.015L **
 *******************************************************************************
 ** Cite this work as: MOPAC2009, James J. P. Stewart, Stewart Computational  **
 ** Chemistry, Version 9.015L web: HTTP://OpenMOPAC.net                       **
 *******************************************************************************
 **                                                                           **
 **                                MOPAC2009                                  **
 **                                                                           **
 *******************************************************************************

                            PM6 CALCULATION RESULTS


 *******************************************************************************
 *  CALCULATION DONE:                                Tue Sep  6 16:25:31 2011  *
 *  PM6      - The PM6 Hamiltonian to be used
 *  GEO-OK   - OVERRIDE INTERATOMIC DISTANCE CHECK
 *
 *
 *
 *                 CHARGE ON SYSTEM =     0
 *
 *
 *
 *  EPS= 78.400
 *  RSOLV=  1.300
 *  OLDGEO   - PREVIOUS GEOMETRY TO BE USED
 *  T=       - A TIME OF 172800.0 SECONDS REQUESTED
 *  DUMP=N   - RESTART FILE WRITTEN EVERY  4320.000 SECONDS
 *  RELSCF   - DEFAULT SCF CRITERION MULTIPLIED BY   0.100    
 *             (DEFAULT SCFCRT= 0.00010)
 *  THERMO   - THERMODYNAMIC QUANTITIES TO BE CALCULATED
 *******************************************************************************
 PM6 DUMP=4320 RELSCF=0.1 THERMO EPS=78.40 RSOLV=1.30 +
 OLDGEO GEO-OK CHARGE=0
 SJ000001677-1_T001S001I001C01: Free energy calculation

   ATOM   CHEMICAL          X               Y              Z
  NUMBER   SYMBOL      (ANGSTROMS)     (ANGSTROMS)    (ANGSTROMS)
 
     1       C         -0.0090416  *    0.030427  *   -0.002457  *
     2       C         -0.0361451  *   -0.713167  *    1.322969  *
     3       O          0.1400451  *   -0.117021  *    2.367321  *
     4       C         -0.2831145  *   -2.178943  *    1.273622  *
     5       C         -0.5161392  *   -2.874596  *    2.460878  *
     6       C         -0.7469723  *   -4.260415  *    2.429312  *
     7       C         -0.7378884  *   -4.942233  *    1.216326  *
     8       C         -0.4995489  *   -4.247637  *    0.017806  *
     9       C         -0.2763196  *   -2.870697  *    0.042558  *
    10       C         -0.0327098  *   -2.146839  *   -1.238077  *
    11       O          0.1236694  *   -2.734674  *   -2.292341  *
    12       C         -0.0006244  *   -0.658239  *   -1.156839  *
    13      Br          0.0508278  *    0.236215  *   -2.832140  *
    14       H         -0.5191840  *   -2.340396  *    3.417476  *
    15       H         -0.9323698  *   -4.798106  *    3.364296  *
    16       H         -0.9149486  *   -6.021898  *    1.188705  *
    17       H         -0.4901784  *   -4.787891  *   -0.935487  *
    18       C          0.0115097  *    1.505836  *    0.082842  *
    19       H          0.8905104  *    1.938923  *   -0.429599  *
    20       H         -0.8748965  *    1.956937  *   -0.401301  *
    21       H          0.0334229  *    1.881582  *    1.119941  *
 


          CARTESIAN COORDINATES 

    NO.       ATOM         X         Y         Z

     1         C       -0.0090    0.0304   -0.0025
     2         C       -0.0361   -0.7132    1.3230
     3         O        0.1400   -0.1170    2.3673
     4         C       -0.2831   -2.1789    1.2736
     5         C       -0.5161   -2.8746    2.4609
     6         C       -0.7470   -4.2604    2.4293
     7         C       -0.7379   -4.9422    1.2163
     8         C       -0.4995   -4.2476    0.0178
     9         C       -0.2763   -2.8707    0.0426
    10         C       -0.0327   -2.1468   -1.2381
    11         O        0.1237   -2.7347   -2.2923
    12         C       -0.0006   -0.6582   -1.1568
    13        Br        0.0508    0.2362   -2.8321
    14         H       -0.5192   -2.3404    3.4175
    15         H       -0.9324   -4.7981    3.3643
    16         H       -0.9149   -6.0219    1.1887
    17         H       -0.4902   -4.7879   -0.9355
    18         C        0.0115    1.5058    0.0828
    19         H        0.8905    1.9389   -0.4296
    20         H       -0.8749    1.9569   -0.4013
    21         H        0.0334    1.8816    1.1199

 General Reference for PM6:
 "Optimization of Parameters for Semiempirical Methods V: Modification of NDDO Approximations
 and Application to 70 Elements", J. J. P. Stewart, J. Mol. Mod., 13, 1173-1213 (2007)
 URL: http://www.springerlink.com/content/ar33482301010477/fulltext.pdf

           Empirical Formula: C11 H7 O2 Br  =    21 atoms



      MOLECULAR POINT GROUP   :   C1  


      RHF CALCULATION, NO. OF DOUBLY OCCUPIED LEVELS =   35

  SCF CRITERION =    0.1000E-04


          HEAT OF FORMATION =     -34.184458 KCALS/MOLE


          INTERNAL COORDINATE DERIVATIVES

   NUMBER  ATOM       BOND         ANGLE      DIHEDRAL

     1       C
     2       C     -0.000972
     3       O     -0.012040     0.007827
     4       C      0.007692    -0.121835     0.026162
     5       C     -0.039786     0.070303    -0.061715
     6       C      0.070763     0.068521     0.024390
     7       C     -0.090247    -0.028402     0.010861
     8       C      0.095037     0.004216     0.005030
     9       C     -0.030702     0.043130     0.051173
    10       C     -0.034614    -0.068278    -0.016572
    11       O     -0.003989     0.037755    -0.011135
    12       C      0.127687    -0.022619    -0.022719
    13      Br     -0.251544    -0.170886    -0.038751
    14       H      0.021253     0.035057    -0.000138
    15       H      0.159463     0.263819     0.034633
    16       H     -0.019188    -0.009199     0.014394
    17       H     -0.039550     0.014026     0.002964
    18       C      0.079571     0.021791    -0.005594
    19       H     -0.020199    -0.010871    -0.038687
    20       H     -0.025582     0.049154     0.018319
    21       H     -0.037007    -0.089242     0.009807


          GRADIENT NORM =   0.56086


          TIME FOR SCF CALCULATION =    0.05

          TIME FOR DERIVATIVES     =    0.03

          MOLECULAR WEIGHT =  251.08



          ROTATIONAL CONSTANTS IN CM(-1)

          A =    0.03348685   B =    0.01187716   C =    0.00882762



           PRINCIPAL MOMENTS OF INERTIA IN UNITS OF 10**(-40)*GRAM-CM**2

          A =      835.9334   B =     2356.8578   C =     3171.0455


          ORIENTATION OF MOLECULE IN FORCE CALCULATION

    NO.       ATOM         X         Y         Z

     1          C      -0.1547    1.4067    0.1374
     2          C       1.3654    1.4067    0.1374
     3          O       1.9812    2.4545    0.1374
     4          C       2.0438    0.0832    0.1359
     5          C       3.4235    0.0206    0.3364
     6          C       4.0781   -1.2229    0.3333
     7          C       3.3538   -2.3926    0.1248
     8          C       1.9646   -2.3354   -0.0819
     9          C       1.3086   -1.1042   -0.0733
    10          C      -0.1665   -1.0607   -0.2863
    11          O      -0.8011   -2.0467   -0.6128
    12          C      -0.8245    0.2594   -0.0673
    13         Br      -2.7238    0.2236   -0.0917
    14          H       3.9964    0.9408    0.4962
    15          H       5.1597   -1.2639    0.4947
    16          H       3.8610   -3.3624    0.1195
    17          H       1.3975   -3.2581   -0.2487
    18          C      -0.8024    2.7154    0.3660
    19          H      -1.4768    2.9953   -0.4645
    20          H      -1.4295    2.7090    1.2772
    21          H      -0.0823    3.5433    0.4810


    FIRST DERIVATIVES WILL BE USED IN THE CALCULATION OF SECOND DERIVATIVES

          ESTIMATED TIME TO COMPLETE CALCULATION =       10.20 SECONDS

    FOR POINT-GROUP C1   THERE ARE   1 UNIQUE SYMMETRY FUNCTIONS.

 STEP:   1 TIME =     0.07 SECS, INTEGRAL =      0.07 TIME LEFT: 172799.85
 STEP:   2 TIME =     0.08 SECS, INTEGRAL =      0.15 TIME LEFT: 172799.77
 STEP:   3 TIME =     0.07 SECS, INTEGRAL =      0.22 TIME LEFT: 172799.70
 STEP:   4 TIME =     0.07 SECS, INTEGRAL =      0.30 TIME LEFT: 172799.62
 STEP:   5 TIME =     0.07 SECS, INTEGRAL =      0.37 TIME LEFT: 172799.55
 STEP:   6 TIME =     0.07 SECS, INTEGRAL =      0.45 TIME LEFT: 172799.47
 STEP:   7 TIME =     0.07 SECS, INTEGRAL =      0.52 TIME LEFT: 172799.40
 STEP:   8 TIME =     0.07 SECS, INTEGRAL =      0.59 TIME LEFT: 172799.33
 STEP:   9 TIME =     0.07 SECS, INTEGRAL =      0.66 TIME LEFT: 172799.26
 STEP:  10 TIME =     0.08 SECS, INTEGRAL =      0.74 TIME LEFT: 172799.18
 STEP:  11 TIME =     0.08 SECS, INTEGRAL =      0.82 TIME LEFT: 172799.10
 STEP:  12 TIME =     0.07 SECS, INTEGRAL =      0.89 TIME LEFT: 172799.03
 STEP:  13 TIME =     0.08 SECS, INTEGRAL =      0.97 TIME LEFT: 172798.95
 STEP:  14 TIME =     0.07 SECS, INTEGRAL =      1.04 TIME LEFT: 172798.88
 STEP:  15 TIME =     0.07 SECS, INTEGRAL =      1.12 TIME LEFT: 172798.80
 STEP:  16 TIME =     0.08 SECS, INTEGRAL =      1.19 TIME LEFT: 172798.73
 STEP:  17 TIME =     0.08 SECS, INTEGRAL =      1.27 TIME LEFT: 172798.65
 STEP:  18 TIME =     0.08 SECS, INTEGRAL =      1.36 TIME LEFT: 172798.56
 STEP:  19 TIME =     0.08 SECS, INTEGRAL =      1.44 TIME LEFT: 172798.48
 STEP:  20 TIME =     0.09 SECS, INTEGRAL =      1.53 TIME LEFT: 172798.39
 STEP:  21 TIME =     0.08 SECS, INTEGRAL =      1.61 TIME LEFT: 172798.31
 STEP:  22 TIME =     0.07 SECS, INTEGRAL =      1.69 TIME LEFT: 172798.23
 STEP:  23 TIME =     0.07 SECS, INTEGRAL =      1.76 TIME LEFT: 172798.16
 STEP:  24 TIME =     0.07 SECS, INTEGRAL =      1.84 TIME LEFT: 172798.08
 STEP:  25 TIME =     0.08 SECS, INTEGRAL =      1.91 TIME LEFT: 172798.01
 STEP:  26 TIME =     0.07 SECS, INTEGRAL =      1.99 TIME LEFT: 172797.93
 STEP:  27 TIME =     0.07 SECS, INTEGRAL =      2.06 TIME LEFT: 172797.86
 STEP:  28 TIME =     0.07 SECS, INTEGRAL =      2.14 TIME LEFT: 172797.78
 STEP:  29 TIME =     0.07 SECS, INTEGRAL =      2.21 TIME LEFT: 172797.71
 STEP:  30 TIME =     0.07 SECS, INTEGRAL =      2.28 TIME LEFT: 172797.63
 STEP:  31 TIME =     0.07 SECS, INTEGRAL =      2.36 TIME LEFT: 172797.56
 STEP:  32 TIME =     0.07 SECS, INTEGRAL =      2.43 TIME LEFT: 172797.49
 STEP:  33 TIME =     0.07 SECS, INTEGRAL =      2.50 TIME LEFT: 172797.42
 STEP:  34 TIME =     0.07 SECS, INTEGRAL =      2.57 TIME LEFT: 172797.35
 STEP:  35 TIME =     0.07 SECS, INTEGRAL =      2.64 TIME LEFT: 172797.28
 STEP:  36 TIME =     0.07 SECS, INTEGRAL =      2.72 TIME LEFT: 172797.20
 STEP:  37 TIME =     0.07 SECS, INTEGRAL =      2.79 TIME LEFT: 172797.13
 STEP:  38 TIME =     0.07 SECS, INTEGRAL =      2.86 TIME LEFT: 172797.06
 STEP:  39 TIME =     0.07 SECS, INTEGRAL =      2.93 TIME LEFT: 172796.99
 STEP:  40 TIME =     0.07 SECS, INTEGRAL =      2.99 TIME LEFT: 172796.92
 STEP:  41 TIME =     0.07 SECS, INTEGRAL =      3.06 TIME LEFT: 172796.86
 STEP:  42 TIME =     0.07 SECS, INTEGRAL =      3.13 TIME LEFT: 172796.79
 STEP:  43 TIME =     0.07 SECS, INTEGRAL =      3.20 TIME LEFT: 172796.72
 STEP:  44 TIME =     0.07 SECS, INTEGRAL =      3.27 TIME LEFT: 172796.65
 STEP:  45 TIME =     0.07 SECS, INTEGRAL =      3.34 TIME LEFT: 172796.58
 STEP:  46 TIME =     0.07 SECS, INTEGRAL =      3.41 TIME LEFT: 172796.51
 STEP:  47 TIME =     0.07 SECS, INTEGRAL =      3.48 TIME LEFT: 172796.44
 STEP:  48 TIME =     0.07 SECS, INTEGRAL =      3.55 TIME LEFT: 172796.37
 STEP:  49 TIME =     0.07 SECS, INTEGRAL =      3.62 TIME LEFT: 172796.30
 STEP:  50 TIME =     0.07 SECS, INTEGRAL =      3.69 TIME LEFT: 172796.23
 STEP:  51 TIME =     0.07 SECS, INTEGRAL =      3.75 TIME LEFT: 172796.16
 STEP:  52 TIME =     0.07 SECS, INTEGRAL =      3.83 TIME LEFT: 172796.09
 STEP:  53 TIME =     0.07 SECS, INTEGRAL =      3.90 TIME LEFT: 172796.02
 STEP:  54 TIME =     0.07 SECS, INTEGRAL =      3.97 TIME LEFT: 172795.95
 STEP:  55 TIME =     0.07 SECS, INTEGRAL =      4.04 TIME LEFT: 172795.88
 STEP:  56 TIME =     0.07 SECS, INTEGRAL =      4.11 TIME LEFT: 172795.81
 STEP:  57 TIME =     0.07 SECS, INTEGRAL =      4.18 TIME LEFT: 172795.74
 STEP:  58 TIME =     0.07 SECS, INTEGRAL =      4.25 TIME LEFT: 172795.67
 STEP:  59 TIME =     0.07 SECS, INTEGRAL =      4.32 TIME LEFT: 172795.60
 STEP:  60 TIME =     0.07 SECS, INTEGRAL =      4.39 TIME LEFT: 172795.53
 STEP:  61 TIME =     0.07 SECS, INTEGRAL =      4.45 TIME LEFT: 172795.46
 STEP:  62 TIME =     0.07 SECS, INTEGRAL =      4.52 TIME LEFT: 172795.40
 STEP:  63 TIME =     0.07 SECS, INTEGRAL =      4.59 TIME LEFT: 172795.33

(To convert to Hartree/Bohr^2, multiply by (10^(-21) x N x a0^2)/(4.184 x 627.51) = 0.0642)


           FORCE MATRIX IN MILLIDYNES/ANGSTROM


                  C  1       C  2       O  3       C  4       C  5       C  6
 ------------------------------------------------------------------------------
     C    1  16.091444
     C    2   3.013725  16.067982
     O    3   1.398960  10.732925  12.731481
     C    4   0.646438   3.282434   1.622233  14.929746
     C    5   0.042134   0.864140   0.080513   5.535015  14.001062
     C    6   0.033650   0.136907   0.042272   2.251940   5.210080  14.046058
     C    7   0.026997   0.203551   0.080549   1.603728   2.323259   5.759902
     C    8   0.029624   0.362910   0.121598   2.187290   1.517303   2.313543
     C    9   0.067467   1.007926   0.105633   4.874968   2.166747   1.590433
     C   10   1.176423   0.650308   0.201713   0.978211   0.358485   0.209890
     O   11   0.144103   0.169442   0.092938   0.079021   0.105214   0.073031
     C   12   8.510046   0.922604   0.085882   0.080743   0.030022   0.019233
    Br   13   0.858429   0.119550   0.083846   0.011313   0.013717   0.010554
     H   14   0.006946   0.089063   0.020302   0.672608   3.444860   0.637267
     H   15   0.003533   0.026149   0.013697   0.085992   0.650912   3.464960
     H   16   0.003119   0.053770   0.021851   0.048774   0.103576   0.656230
     H   17   0.002924   0.028025   0.014789   0.091641   0.019611   0.089069
     C   18   3.937252   0.661619   0.112800   0.052349   0.019517   0.011048
     H   19   0.693762   0.036996   0.019649   0.006263   0.002834   0.002001
     H   20   0.693939   0.037883   0.018238   0.006436   0.003599   0.002598
     H   21   0.671467   0.113008   0.045275   0.024865   0.003537   0.001850


                  C  7       C  8       C  9       C 10       O 11       C 12
 ------------------------------------------------------------------------------
     C    7  13.979759
     C    8   5.175605  13.988129
     C    9   2.265165   5.552757  14.977578
     C   10   0.141386   0.857406   3.283386  16.067032
     O   11   0.048059   0.077125   1.449814  10.684883  12.838194
     C   12   0.034399   0.049147   0.701520   3.308884   1.578764  14.036775
    Br   13   0.010460   0.019786   0.047188   0.646840   0.178745   2.197158
     H   14   0.089330   0.020949   0.092619   0.028290   0.014523   0.004722
     H   15   0.665239   0.103020   0.035860   0.043448   0.016093   0.004744
     H   16   3.459697   0.638760   0.085135   0.029670   0.014417   0.003994
     H   17   0.649563   3.452313   0.659360   0.091560   0.032789   0.010787
     C   18   0.008340   0.009469   0.029206   0.302780   0.090246   1.053796
     H   19   0.001951   0.002590   0.005699   0.053979   0.019559   0.064333
     H   20   0.002308   0.003068   0.005022   0.051529   0.019815   0.061183
     H   21   0.002573   0.003707   0.003898   0.037116   0.010924   0.037327


                 Br 13       H 14       H 15       H 16       H 17       C 18
 ------------------------------------------------------------------------------
    Br   13   3.589919
     H   14   0.005747   4.228118
     H   15   0.003588   0.026902   4.257441
     H   16   0.004226   0.013206   0.037872   4.249159
     H   17   0.004616   0.012242   0.012439   0.027971   4.248997
     C   18   0.100231   0.004536   0.003026   0.003228   0.003873  11.241516
     H   19   0.038929   0.000696   0.000517   0.000664   0.000778   3.315930
     H   20   0.028307   0.000887   0.000523   0.000640   0.000727   3.311985
     H   21   0.005775   0.002727   0.000705   0.001009   0.000913   3.383715


                  H 19       H 20       H 21
 ------------------------------------------
     H   19   4.114616
     H   20   0.424330   4.110155
     H   21   0.416908   0.414228   4.156635


          HEAT OF FORMATION =     -34.184458 KCALS/MOLE

          ZERO POINT ENERGY      88.219 KCAL/MOL


           NORMAL COORDINATE ANALYSIS (Total motion = 1 Angstrom)


   Root No.       1         2         3         4         5         6         7         8

                 1 A       2 A       3 A       4 A       5 A       6 A       7 A       8 A   

                  32.0      72.7     104.7     165.6     169.1     207.6     243.3     262.1
  
           1   -0.0012   -0.0018    0.0000   -0.0047   -0.0097    0.0011   -0.0088    0.0017
           2    0.0007   -0.0075   -0.0008   -0.0073   -0.0413   -0.0029    0.0058   -0.0126
           3   -0.0081    0.0479    0.0059    0.0242   -0.0112    0.0178   -0.0054    0.0217
           4   -0.0013   -0.0017    0.0005   -0.0050   -0.0153    0.0011   -0.0145    0.0117
           5   -0.0029   -0.0022    0.0007   -0.0105   -0.0269    0.0015    0.0213    0.0102
           6    0.0360   -0.0013    0.0016    0.0241   -0.0092   -0.0044    0.0043    0.0074
           7   -0.0011   -0.0048   -0.0014   -0.0048   -0.0250   -0.0001   -0.0207   -0.0224
           8   -0.0027   -0.0005    0.0019   -0.0107   -0.0209    0.0023    0.0236    0.0290
           9    0.1016   -0.0614    0.0395   -0.0418    0.0124   -0.0067   -0.0071   -0.0053
          10    0.0006    0.0016    0.0027   -0.0034   -0.0054    0.0025   -0.0191    0.0409
          11   -0.0019   -0.0001    0.0020   -0.0095   -0.0187    0.0027    0.0105    0.0197
          12    0.0021    0.0025   -0.0283    0.0587   -0.0180   -0.0195    0.0138   -0.0092
          13    0.0063    0.0047    0.0105    0.0020   -0.0057    0.0016   -0.0205    0.0424
          14    0.0017    0.0043    0.0058   -0.0024    0.0175    0.0019   -0.0085   -0.0237
          15   -0.0335   -0.0184   -0.0788    0.0241   -0.0055   -0.0142    0.0071   -0.0153
          16    0.0116    0.0080    0.0059    0.0156    0.0222   -0.0027   -0.0292    0.0065
          17    0.0048    0.0060    0.0036    0.0049    0.0339   -0.0004   -0.0152   -0.0463
          18   -0.0582   -0.0269   -0.0478   -0.0414    0.0174    0.0106   -0.0173    0.0105
          19    0.0107    0.0076   -0.0086    0.0181    0.0446   -0.0035   -0.0293   -0.0164
          20    0.0030    0.0036   -0.0050    0.0034    0.0198   -0.0005   -0.0155   -0.0323
          21   -0.0456   -0.0125    0.0502   -0.0423    0.0190    0.0144   -0.0124    0.0092
          22    0.0054    0.0040   -0.0138    0.0075    0.0446   -0.0002   -0.0297   -0.0076
          23   -0.0008   -0.0006   -0.0082   -0.0056   -0.0129    0.0014   -0.0050    0.0122
          24   -0.0097    0.0110    0.0840    0.0242   -0.0022   -0.0071    0.0098   -0.0189
          25    0.0003    0.0008   -0.0043   -0.0018    0.0110    0.0017   -0.0111    0.0263
          26   -0.0033   -0.0023   -0.0029   -0.0107   -0.0298    0.0024    0.0038    0.0304
          27    0.0129    0.0174    0.0247    0.0589   -0.0171   -0.0160    0.0110   -0.0099
          28   -0.0046   -0.0025    0.0006    0.0019    0.0040   -0.0005   -0.0006    0.0219
          29   -0.0103   -0.0065    0.0025   -0.0043   -0.0429    0.0000   -0.0121    0.0130
          30    0.0464    0.0367   -0.0065    0.0260   -0.0157   -0.0002   -0.0061    0.0114
          31   -0.0109   -0.0063    0.0080    0.0156    0.0093   -0.0037    0.0000    0.0608
          32   -0.0218   -0.0146    0.0120    0.0124   -0.0464   -0.0001   -0.0165   -0.0085
          33    0.0928    0.0687   -0.0494   -0.0502   -0.0130    0.0066    0.0029    0.0010
          34   -0.0011   -0.0014   -0.0005   -0.0052   -0.0041    0.0005    0.0199   -0.0064
          35   -0.0024   -0.0033    0.0004   -0.0090   -0.0440   -0.0016   -0.0080   -0.0105
          36    0.0091    0.0225    0.0011    0.0361   -0.0136    0.0127   -0.0170    0.0307
          37   -0.0014   -0.0011   -0.0001   -0.0060   -0.0080    0.0005    0.0448   -0.0198
          38    0.0046    0.0074   -0.0018    0.0065    0.0430   -0.0009    0.0093    0.0077
          39   -0.0169   -0.0334   -0.0032   -0.0023    0.0077   -0.0006    0.0036   -0.0012
          40    0.0060    0.0046    0.0174   -0.0020   -0.0305    0.0030   -0.0081    0.0714
          41    0.0031    0.0059    0.0104   -0.0011    0.0345    0.0022   -0.0177   -0.0413
          42   -0.0389   -0.0273   -0.1288    0.0310   -0.0090   -0.0211    0.0135   -0.0261
          43    0.0155    0.0106    0.0124    0.0233    0.0204   -0.0052   -0.0259    0.0026
          44    0.0084    0.0092    0.0072    0.0123    0.0575   -0.0023   -0.0182   -0.0754
          45   -0.0841   -0.0436   -0.0905   -0.0921    0.0337    0.0271   -0.0370    0.0299
          46    0.0139    0.0102   -0.0138    0.0275    0.0643   -0.0064   -0.0313   -0.0452
          47    0.0048    0.0050   -0.0079    0.0086    0.0300   -0.0021   -0.0162   -0.0470
          48   -0.0621   -0.0187    0.0941   -0.0948    0.0369    0.0338   -0.0260    0.0265
          49    0.0048    0.0039   -0.0246    0.0089    0.0724    0.0001   -0.0449   -0.0361
          50   -0.0022   -0.0027   -0.0135   -0.0082   -0.0296    0.0018    0.0025    0.0323
          51    0.0006    0.0232    0.1501    0.0340   -0.0026   -0.0102    0.0182   -0.0382
          52   -0.0037    0.0004   -0.0004   -0.0033   -0.0182    0.0005   -0.0895   -0.0300
          53    0.0093   -0.0171   -0.0034    0.0031   -0.0469   -0.0017   -0.0332   -0.0215
          54   -0.0629    0.1075    0.0202   -0.0316   -0.0002    0.0096   -0.0027   -0.0163
          55    0.0339   -0.0439   -0.0109    0.0622   -0.0218    0.2072   -0.0870   -0.0506
          56   -0.0057    0.0004    0.0004    0.0005   -0.0420    0.0968   -0.0604   -0.0720
          57   -0.0983    0.1494    0.0302   -0.0861    0.0046   -0.1260   -0.0152   -0.0175
          58   -0.0417    0.0452    0.0103   -0.0695   -0.0125   -0.2106   -0.1125   -0.0178
          59    0.0335   -0.0452   -0.0108    0.0252   -0.0554   -0.0540   -0.0832   -0.0055
          60   -0.0887    0.1380    0.0275   -0.0775    0.0037   -0.1377   -0.0177   -0.0074
          61   -0.0039    0.0005   -0.0008   -0.0004   -0.0217    0.0075   -0.1463   -0.0558
          62    0.0077   -0.0148   -0.0026   -0.0049   -0.0440   -0.0397    0.0088    0.0051
          63   -0.0486    0.0886    0.0165    0.0079    0.0015    0.2390    0.0254   -0.0563


   Root No.       9        10        11        12        13        14        15        16

                 9 A      10 A      11 A      12 A      13 A      14 A      15 A      16 A   

                 265.9     328.7     376.0     382.5     397.4     409.1     485.1     494.5
  
           1   -0.0048   -0.0111    0.0254   -0.0187   -0.0190   -0.0284   -0.0058    0.0171
           2   -0.0009   -0.0216   -0.0151    0.0166    0.0288    0.0293   -0.0117    0.0110
           3    0.0572    0.0096   -0.0001    0.0118   -0.0435    0.0310    0.0425    0.0482
           4   -0.0090   -0.0186    0.0271   -0.0204   -0.0193   -0.0276   -0.0072    0.0245
           5   -0.0057    0.0002    0.0246   -0.0132   -0.0014   -0.0096   -0.0296    0.0562
           6    0.0137    0.0020   -0.0121    0.0492   -0.0411   -0.0054    0.0245    0.0338
           7   -0.0055   -0.0672    0.1155    0.0127   -0.0088    0.0155   -0.0078    0.0203
           8   -0.0079    0.0289   -0.0242   -0.0329   -0.0082   -0.0357   -0.0310    0.0627
           9   -0.0066    0.0017    0.0069   -0.0187    0.0151    0.0001   -0.0073   -0.0090
          10   -0.0112   -0.0132   -0.0199   -0.0161   -0.0122   -0.0121    0.0216   -0.0338
          11   -0.0072    0.0116    0.0159   -0.0096   -0.0052   -0.0059   -0.0044    0.0075
          12   -0.0265   -0.0007   -0.0094    0.0582   -0.0166   -0.0421   -0.0192   -0.0061
          13   -0.0110   -0.0164   -0.0225   -0.0008   -0.0108   -0.0239    0.0262   -0.0378
          14    0.0079    0.0092    0.0358    0.0064   -0.0068   -0.0054    0.0112   -0.0219
          15   -0.0314    0.0015   -0.0076   -0.0425   -0.0309    0.0360   -0.0254   -0.0253
          16   -0.0076   -0.0298   -0.0405   -0.0048   -0.0140   -0.0102    0.0046   -0.0118
          17    0.0104    0.0024    0.0325    0.0061   -0.0099    0.0034    0.0014   -0.0124
          18    0.0231   -0.0035    0.0115   -0.0137    0.0422   -0.0207    0.0469    0.0210
          19    0.0030   -0.0301   -0.0424   -0.0095    0.0155    0.0061   -0.0075    0.0370
          20    0.0043    0.0030    0.0374   -0.0031   -0.0163   -0.0119    0.0239   -0.0305
          21    0.0210   -0.0067   -0.0154    0.0445   -0.0285   -0.0065   -0.0450   -0.0185
          22    0.0094   -0.0279   -0.0397    0.0058    0.0136    0.0020   -0.0183    0.0282
          23   -0.0070    0.0050    0.0229   -0.0015   -0.0212   -0.0250    0.0141   -0.0220
          24   -0.0315   -0.0023   -0.0093   -0.0469   -0.0135    0.0322    0.0275    0.0157
          25   -0.0033   -0.0115   -0.0277   -0.0011    0.0037    0.0180   -0.0096    0.0003
          26   -0.0139    0.0109    0.0233   -0.0039   -0.0230   -0.0108    0.0137   -0.0278
          27   -0.0223    0.0014    0.0157    0.0120    0.0533   -0.0551    0.0127    0.0087
          28   -0.0076   -0.0070   -0.0218    0.0070    0.0103    0.0209   -0.0060    0.0012
          29   -0.0072   -0.0211   -0.0223    0.0112    0.0061    0.0205    0.0143   -0.0261
          30    0.0242   -0.0003    0.0213   -0.0176    0.0477   -0.0194   -0.0209   -0.0255
          31   -0.0317    0.0409    0.0500    0.0334    0.0353    0.0546   -0.0017   -0.0067
          32    0.0222   -0.0503   -0.0562   -0.0144    0.0107   -0.0111    0.0023   -0.0308
          33   -0.0179   -0.0078   -0.0183    0.0096   -0.0112    0.0152    0.0074   -0.0028
          34    0.0042   -0.0078    0.0008   -0.0030   -0.0037   -0.0023   -0.0107    0.0318
          35   -0.0095   -0.0232   -0.0177    0.0161    0.0105    0.0140    0.0089    0.0092
          36    0.0818    0.0092    0.0393   -0.0465    0.0107    0.0152   -0.0442   -0.0350
          37    0.0149    0.0159   -0.0067    0.0015    0.0020   -0.0008    0.0048   -0.0122
          38   -0.0012    0.0023   -0.0001    0.0004    0.0009    0.0015   -0.0002   -0.0009
          39   -0.0060    0.0000   -0.0019    0.0027   -0.0005   -0.0001    0.0017    0.0011
          40   -0.0164   -0.0112   -0.0241    0.0050   -0.0035   -0.0405    0.0257   -0.0259
          41    0.0160    0.0049    0.0390    0.0157   -0.0019   -0.0101    0.0172   -0.0217
          42   -0.0555    0.0048   -0.0216   -0.1176   -0.0844    0.1213   -0.0633   -0.0545
          43   -0.0134   -0.0296   -0.0446   -0.0015   -0.0244   -0.0054   -0.0104   -0.0166
          44    0.0174   -0.0044    0.0205    0.0089   -0.0014    0.0178   -0.0265    0.0295
          45    0.0639   -0.0033    0.0378   -0.0336    0.1167   -0.0472    0.1358    0.0668
          46    0.0085   -0.0295   -0.0347   -0.0134    0.0331    0.0222   -0.0075    0.0554
          47    0.0069    0.0033    0.0408   -0.0055   -0.0063   -0.0030    0.0234   -0.0190
          48    0.0590   -0.0098   -0.0298    0.1214   -0.0779   -0.0072   -0.1305   -0.0620
          49    0.0249   -0.0374   -0.0415    0.0208    0.0178   -0.0135   -0.0263    0.0326
          50   -0.0112    0.0103    0.0256    0.0075   -0.0173   -0.0309    0.0094   -0.0286
          51   -0.0587   -0.0018   -0.0184   -0.1462   -0.0463    0.1219    0.0812    0.0332
          52   -0.0095    0.0822    0.0000   -0.0092   -0.0125   -0.0225   -0.0040    0.0031
          53    0.0116    0.0250   -0.0316    0.0262    0.0259    0.0442   -0.0039    0.0181
          54   -0.0249   -0.0001   -0.0030    0.0007    0.0162    0.0021   -0.0056   -0.0010
          55   -0.0428    0.0989   -0.0133   -0.0038   -0.0192   -0.0165    0.0073    0.0150
          56   -0.0659    0.0662   -0.0494    0.0253    0.0755    0.0253   -0.0427   -0.0292
          57   -0.0248    0.0022    0.0005   -0.0040    0.0400   -0.0099   -0.0299   -0.0279
          58    0.0237    0.0965    0.0026   -0.0128   -0.0044   -0.0280   -0.0165   -0.0102
          59    0.0834    0.0913   -0.0437    0.0416   -0.0224    0.0778    0.0434    0.0620
          60   -0.0021    0.0078    0.0003   -0.0019    0.0225   -0.0025   -0.0152   -0.0122
          61   -0.0130    0.1548   -0.0235    0.0000   -0.0056   -0.0137   -0.0020   -0.0071
          62    0.0279   -0.0289   -0.0130    0.0190    0.0144    0.0394   -0.0011    0.0312
          63   -0.1195   -0.0224   -0.0062   -0.0040    0.0553   -0.0188   -0.0379   -0.0330


   Root No.      17        18        19        20        21        22        23        24

                17 A      18 A      19 A      20 A      21 A      22 A      23 A      24 A   

                 549.7     627.9     649.4     655.3     697.6     794.0     804.7     817.0
  
           1   -0.0364   -0.0286    0.0232    0.0307   -0.0001    0.0100   -0.0464    0.0037
           2    0.0246   -0.0061    0.0451   -0.0043    0.0019    0.0096   -0.0217    0.0018
           3   -0.0103   -0.0417   -0.0264   -0.0314   -0.0318   -0.0326   -0.0077   -0.0003
           4   -0.0200   -0.0311    0.0375    0.0182   -0.0019   -0.0003   -0.0119    0.0004
           5    0.0095    0.0169   -0.0178   -0.0102    0.0009   -0.0110    0.0416   -0.0025
           6   -0.0075    0.0292    0.0179    0.0230    0.0944    0.0669    0.0163   -0.0119
           7    0.0166    0.0187   -0.0232   -0.0148    0.0015   -0.0072    0.0270   -0.0021
           8   -0.0118   -0.0111    0.0169    0.0077   -0.0002   -0.0091    0.0278   -0.0015
           9    0.0015   -0.0068   -0.0046   -0.0055   -0.0228   -0.0142   -0.0033    0.0022
          10    0.0047   -0.0007    0.0271   -0.0409    0.0036    0.0080   -0.0073   -0.0012
          11    0.0121    0.0290   -0.0392   -0.0264    0.0065    0.0067   -0.0054    0.0001
          12    0.0004    0.0515    0.0244    0.0351   -0.0429   -0.0663   -0.0131    0.0123
          13    0.0151    0.0088    0.0417   -0.0412   -0.0038   -0.0066    0.0018    0.0025
          14   -0.0501    0.0195    0.0219   -0.0390   -0.0013    0.0032   -0.0357    0.0033
          15   -0.0023   -0.0227   -0.0018   -0.0258   -0.0027    0.0020   -0.0048   -0.0143
          16    0.0657   -0.0310    0.0150    0.0223   -0.0013   -0.0119    0.0667   -0.0011
          17   -0.0325   -0.0065    0.0149   -0.0022    0.0006    0.0006   -0.0001    0.0023
          18    0.0070    0.0143    0.0106    0.0152   -0.0090   -0.0021    0.0064   -0.0301
          19    0.0262    0.0038   -0.0270    0.0196    0.0020    0.0031   -0.0283    0.0072
          20   -0.0003   -0.0227    0.0378    0.0097   -0.0013   -0.0096    0.0568   -0.0037
          21    0.0054   -0.0202   -0.0091   -0.0072   -0.0049    0.0117   -0.0008   -0.0260
          22    0.0225    0.0037   -0.0315    0.0075    0.0030    0.0043   -0.0340    0.0068
          23    0.0706   -0.0020   -0.0439    0.0193    0.0035    0.0108   -0.0471    0.0049
          24    0.0099    0.0224    0.0000    0.0167   -0.0082    0.0115   -0.0093   -0.0176
          25   -0.0328    0.0389   -0.0040   -0.0325    0.0034   -0.0096    0.0015   -0.0053
          26    0.0369    0.0183   -0.0288   -0.0013    0.0039    0.0007   -0.0261   -0.0007
          27   -0.0045   -0.0411   -0.0281   -0.0483   -0.0300    0.0573    0.0140    0.0334
          28   -0.0499    0.0368   -0.0165   -0.0253   -0.0137    0.0095    0.0243    0.0012
          29   -0.0342   -0.0192   -0.0217    0.0562   -0.0188    0.0116    0.0105    0.0071
          30   -0.0049   -0.0260   -0.0113   -0.0170    0.0923   -0.0646   -0.0156   -0.0326
          31   -0.0204   -0.0242   -0.0032    0.0368    0.0043   -0.0034    0.0052   -0.0022
          32   -0.0550    0.0095   -0.0378    0.0111    0.0072   -0.0055    0.0183   -0.0041
          33   -0.0190    0.0057   -0.0083    0.0146   -0.0221    0.0132    0.0100    0.0060
          34   -0.0152    0.0068    0.0382   -0.0313   -0.0042    0.0131   -0.0303    0.0016
          35   -0.0031   -0.0391    0.0180    0.0235    0.0054   -0.0045   -0.0322    0.0006
          36    0.0201    0.0350    0.0324    0.0390   -0.0392    0.0422    0.0017    0.0145
          37    0.0063   -0.0013   -0.0062    0.0045    0.0008   -0.0015    0.0032   -0.0002
          38   -0.0001    0.0014   -0.0008   -0.0009   -0.0004    0.0000    0.0009    0.0000
          39   -0.0005   -0.0007   -0.0007   -0.0008    0.0013   -0.0005    0.0001   -0.0002
          40    0.0197    0.0452    0.0245   -0.0594   -0.0191   -0.0142   -0.0286   -0.0175
          41   -0.0514    0.0067    0.0362   -0.0134   -0.0127   -0.0060   -0.0204   -0.0128
          42    0.0010   -0.0882   -0.0326   -0.0828    0.1192    0.0818    0.0322    0.1471
          43    0.0633   -0.0354    0.0100    0.0175   -0.0148   -0.0049    0.0568   -0.0421
          44   -0.0246   -0.0116   -0.0379    0.0411   -0.0039    0.0174   -0.0352   -0.0235
          45    0.0051    0.0557    0.0269    0.0418    0.0806   -0.0408    0.0298    0.2404
          46   -0.0395    0.0170   -0.0046    0.0032   -0.0108    0.0115   -0.0365   -0.0228
          47   -0.0334   -0.0142    0.0454    0.0019   -0.0081   -0.0038    0.0465   -0.0199
          48   -0.0115   -0.0534   -0.0092   -0.0338    0.0917   -0.0741    0.0134    0.2382
          49    0.0225   -0.0356   -0.0068    0.0188   -0.0164    0.0234    0.0129   -0.0202
          50    0.0666    0.0083   -0.0644    0.0001   -0.0056    0.0295   -0.0693   -0.0039
          51    0.0095    0.0963    0.0449    0.0798    0.1060   -0.1611   -0.0223    0.1223
          52   -0.0199    0.0038   -0.0201    0.0156    0.0037    0.0038   -0.0086    0.0008
          53    0.0468    0.0033    0.0417   -0.0351   -0.0035    0.0007   -0.0059   -0.0001
          54    0.0085   -0.0023    0.0047   -0.0088   -0.0072   -0.0121   -0.0026    0.0011
          55   -0.0208   -0.0043   -0.0406   -0.0047   -0.0184   -0.0266    0.0061    0.0018
          56    0.0788    0.0749    0.0467   -0.0299    0.0511    0.0462    0.0690   -0.0119
          57    0.0220    0.0329    0.0260    0.0091    0.0343    0.0334    0.0149   -0.0049
          58   -0.0107    0.0307   -0.0153    0.0195    0.0277    0.0288    0.0149   -0.0038
          59    0.0504   -0.0166   -0.0330   -0.1012   -0.0656   -0.0840    0.0533    0.0014
          60    0.0142    0.0177    0.0095   -0.0019    0.0140    0.0112    0.0117   -0.0026
          61    0.0041    0.0417   -0.0580   -0.0199    0.0060   -0.0106    0.0718   -0.0060
          62    0.0255   -0.0309    0.0661   -0.0106   -0.0113    0.0047   -0.0675    0.0059
          63    0.0162    0.0266    0.0390    0.0214    0.0366    0.0397   -0.0066   -0.0035


   Root No.      25        26        27        28        29        30        31        32

                25 A      26 A      27 A      28 A      29 A      30 A      31 A      32 A   

                 825.0     918.6     971.4     976.3     999.8    1004.7    1062.1    1108.4
  
           1    0.0287   -0.0013    0.0042   -0.0160    0.0000    0.0006   -0.0232    0.0261
           2    0.0166   -0.0002    0.0022   -0.0066   -0.0015    0.0096   -0.0310   -0.0005
           3    0.0054   -0.0016   -0.0028   -0.0014    0.0083   -0.0593   -0.0053   -0.0008
           4   -0.0188    0.0006   -0.0119    0.0540   -0.0022    0.0007    0.0577    0.0259
           5   -0.0193   -0.0005    0.0046   -0.0214    0.0014   -0.0010   -0.0204   -0.0234
           6   -0.0108    0.0110   -0.0038   -0.0017   -0.0009    0.0225    0.0018   -0.0006
           7   -0.0230    0.0001   -0.0001    0.0004    0.0004   -0.0008    0.0042   -0.0077
           8   -0.0288   -0.0004   -0.0022    0.0107   -0.0001   -0.0006    0.0146   -0.0083
           9    0.0018   -0.0018    0.0005    0.0001    0.0002   -0.0038   -0.0003   -0.0001
          10   -0.0326    0.0033   -0.0023    0.0042    0.0017    0.0021    0.0034   -0.0088
          11    0.0054    0.0014    0.0061   -0.0307    0.0014   -0.0014   -0.0298    0.0255
          12    0.0008   -0.0228    0.0130    0.0036   -0.0069   -0.0114   -0.0008    0.0008
          13   -0.0515   -0.0058    0.0079   -0.0038   -0.0046   -0.0016   -0.0131   -0.0148
          14   -0.0515   -0.0036    0.0042    0.0054   -0.0008   -0.0005   -0.0118   -0.0470
          15   -0.0125    0.0350   -0.0445   -0.0107    0.0331    0.0119   -0.0044   -0.0056
          16    0.0366   -0.0038    0.0014   -0.0208    0.0103    0.0005   -0.0172    0.0001
          17   -0.0066   -0.0024   -0.0026    0.0032    0.0041    0.0010    0.0079    0.0232
          18    0.0030    0.0233    0.0227   -0.0008   -0.0549   -0.0099   -0.0011    0.0012
          19   -0.0273    0.0024   -0.0051    0.0026   -0.0075   -0.0009   -0.0088   -0.0160
          20    0.0483    0.0013   -0.0012   -0.0083   -0.0049   -0.0012    0.0047    0.0090
          21   -0.0013   -0.0137    0.0326    0.0098    0.0532    0.0062   -0.0015   -0.0001
          22   -0.0218    0.0073    0.0035    0.0085    0.0030    0.0008    0.0079    0.0008
          23    0.0456    0.0055   -0.0034    0.0280    0.0008    0.0015    0.0235   -0.0242
          24   -0.0010   -0.0470   -0.0414   -0.0064   -0.0280   -0.0024    0.0030   -0.0025
          25    0.0027   -0.0047    0.0026   -0.0203    0.0002   -0.0016    0.0025    0.0527
          26    0.0187   -0.0018   -0.0021   -0.0003   -0.0016   -0.0003    0.0052    0.0341
          27    0.0001    0.0271    0.0123   -0.0010    0.0064    0.0019    0.0018    0.0112
          28    0.0725    0.0025   -0.0009    0.0040    0.0005    0.0003    0.0397    0.0046
          29   -0.0337    0.0031   -0.0006    0.0084   -0.0002    0.0001   -0.0171   -0.0182
          30    0.0145   -0.0138   -0.0048    0.0019   -0.0018    0.0004   -0.0001   -0.0032
          31    0.0034   -0.0007   -0.0016    0.0063   -0.0005    0.0004   -0.0022   -0.0130
          32    0.0236   -0.0005   -0.0031    0.0110   -0.0006    0.0006    0.0124   -0.0132
          33    0.0034    0.0026    0.0000    0.0037    0.0002   -0.0001    0.0030   -0.0051
          34    0.1214    0.0011   -0.0038    0.0213   -0.0020    0.0011   -0.0521   -0.0331
          35   -0.0247   -0.0025    0.0047   -0.0210    0.0006   -0.0024   -0.0453    0.0299
          36   -0.0086    0.0052    0.0026   -0.0031   -0.0009    0.0096   -0.0097    0.0046
          37   -0.0116   -0.0001    0.0001   -0.0006    0.0001    0.0000    0.0024    0.0010
          38    0.0004    0.0000    0.0000    0.0001    0.0000    0.0001    0.0006   -0.0002
          39    0.0001   -0.0001    0.0000    0.0000    0.0000   -0.0002    0.0001    0.0000
          40   -0.0752    0.0281   -0.0246   -0.0295    0.0176    0.0047   -0.0531   -0.0016
          41   -0.0313    0.0172   -0.0223    0.0109    0.0142    0.0064    0.0141   -0.0498
          42   -0.0107   -0.2043    0.2226    0.0505   -0.1319   -0.0504    0.0009   -0.0067
          43    0.0301    0.0250    0.0206   -0.0172   -0.0324   -0.0065   -0.0157    0.0009
          44    0.0177    0.0099    0.0131    0.0261   -0.0069   -0.0010    0.0343    0.0881
          45    0.0202   -0.1643   -0.1044   -0.0108    0.2254    0.0369   -0.0026    0.0107
          46   -0.1013   -0.0110    0.0170   -0.0044    0.0140    0.0007   -0.0251    0.1384
          47    0.0075   -0.0059    0.0108   -0.0101    0.0073   -0.0001   -0.0030    0.0890
          48   -0.0006    0.1165   -0.1586   -0.0484   -0.2197   -0.0247   -0.0014    0.0183
          49   -0.0307   -0.0397   -0.0289   -0.0047   -0.0162   -0.0008   -0.0181   -0.1318
          50    0.0459   -0.0178   -0.0221    0.0243   -0.0103    0.0007    0.0375    0.0631
          51    0.0162    0.2418    0.1752    0.0448    0.0983    0.0067    0.0021   -0.0136
          52    0.0096   -0.0008    0.0098   -0.0464    0.0025   -0.0014    0.0164   -0.0239
          53    0.0037    0.0004   -0.0006   -0.0032    0.0025   -0.0118    0.0630    0.0018
          54    0.0017   -0.0040    0.0050   -0.0015   -0.0098    0.0659    0.0116    0.0004
          55    0.0062   -0.0072    0.0088    0.0008   -0.0182    0.1165   -0.0504    0.0195
          56   -0.0321    0.0183   -0.0480    0.1507    0.0223   -0.1909   -0.0705    0.0456
          57   -0.0092    0.0095   -0.0156    0.0261    0.0178   -0.1226    0.0119   -0.0103
          58    0.0014    0.0083   -0.0105    0.0094    0.0166   -0.1147   -0.0603    0.0235
          59   -0.0232   -0.0137   -0.0109    0.1390   -0.0432    0.2390   -0.0632    0.0423
          60   -0.0033    0.0039   -0.0092    0.0270    0.0051   -0.0427   -0.0359    0.0250
          61   -0.0248    0.0037   -0.0288    0.1383   -0.0078    0.0014   -0.1564    0.0370
          62    0.0320   -0.0049    0.0303   -0.1394    0.0053    0.0171    0.1803   -0.0429
          63    0.0027    0.0093   -0.0071   -0.0196    0.0231   -0.1449    0.0254   -0.0050


   Root No.      33        34        35        36        37        38        39        40

                33 A      34 A      35 A      36 A      37 A      38 A      39 A      40 A   

                1121.0    1131.8    1152.1    1170.4    1209.9    1224.6    1246.7    1260.2
  
           1    0.0127    0.0002    0.0234   -0.0137    0.0014   -0.0182    0.0212   -0.0100
           2   -0.0058   -0.0015   -0.0035   -0.0073   -0.0001    0.0132    0.0074    0.0077
           3   -0.0015   -0.0004   -0.0002   -0.0008   -0.0084    0.0021    0.0017    0.0011
           4    0.0139    0.0039   -0.0052   -0.0030    0.0006   -0.0064   -0.0443    0.0053
           5   -0.0176   -0.0044    0.0017    0.0049   -0.0008    0.0105    0.0294   -0.0013
           6   -0.0004   -0.0007    0.0006   -0.0005    0.0011   -0.0003    0.0000    0.0008
           7   -0.0016   -0.0015   -0.0005    0.0021   -0.0006    0.0008    0.0042    0.0009
           8   -0.0045   -0.0030    0.0013    0.0006   -0.0001    0.0025    0.0089    0.0038
           9    0.0002    0.0001   -0.0002    0.0000   -0.0007    0.0000    0.0000   -0.0001
          10    0.0308    0.0034   -0.0090    0.0093   -0.0003   -0.0050    0.0304   -0.0242
          11    0.0419    0.0130   -0.0084   -0.0044    0.0012   -0.0280   -0.0579   -0.0135
          12    0.0078    0.0015   -0.0019    0.0009   -0.0004   -0.0029   -0.0004   -0.0043
          13   -0.0402   -0.0040   -0.0003    0.0044   -0.0006    0.0304    0.0132   -0.0103
          14    0.0219   -0.0282    0.0086   -0.0030    0.0010   -0.0299    0.0004    0.0174
          15   -0.0036   -0.0025    0.0003    0.0005   -0.0001    0.0023    0.0018    0.0001
          16    0.0034   -0.0446   -0.0023    0.0008    0.0009   -0.0170   -0.0101    0.0024
          17   -0.0356   -0.0096   -0.0019   -0.0001   -0.0007    0.0338   -0.0117    0.0124
          18   -0.0020   -0.0090    0.0000   -0.0002    0.0000    0.0012   -0.0026    0.0013
          19    0.0375   -0.0125   -0.0130    0.0106    0.0009   -0.0349    0.0020    0.0108
          20    0.0178    0.0433    0.0051   -0.0066   -0.0004   -0.0029   -0.0026    0.0203
          21    0.0042    0.0046   -0.0021    0.0017    0.0003   -0.0078    0.0004    0.0033
          22   -0.0479    0.0200    0.0192   -0.0147   -0.0008    0.0352   -0.0134    0.0217
          23    0.0050    0.0154    0.0123   -0.0043    0.0000   -0.0112    0.0261    0.0036
          24   -0.0057    0.0032    0.0039   -0.0025    0.0001    0.0047    0.0002    0.0039
          25    0.0092   -0.0092    0.0097   -0.0207   -0.0006    0.0083   -0.0546    0.0045
          26   -0.0312   -0.0033   -0.0062    0.0028   -0.0004    0.0184   -0.0102   -0.0358
          27   -0.0016   -0.0015    0.0013   -0.0030   -0.0001    0.0030   -0.0083   -0.0029
          28    0.0080    0.0031    0.0264   -0.0139   -0.0006   -0.0084    0.0682    0.0020
          29   -0.0052   -0.0009   -0.0223    0.0148    0.0008    0.0020   -0.0435    0.0001
          30   -0.0007   -0.0001   -0.0023    0.0020    0.0005   -0.0005   -0.0004   -0.0004
          31   -0.0023    0.0018   -0.0031    0.0049    0.0002   -0.0011    0.0008    0.0008
          32   -0.0046    0.0023   -0.0024    0.0060    0.0004   -0.0013    0.0022    0.0000
          33   -0.0012    0.0008   -0.0009    0.0021    0.0002   -0.0006    0.0007    0.0003
          34   -0.0197   -0.0008   -0.0298    0.0198    0.0000    0.0083   -0.0295   -0.0031
          35    0.0087   -0.0011    0.0261   -0.0254   -0.0023    0.0029    0.0407    0.0039
          36    0.0011   -0.0003    0.0038   -0.0042    0.0004    0.0007    0.0060    0.0006
          37    0.0006    0.0000    0.0006   -0.0004    0.0000   -0.0001    0.0000    0.0001
          38    0.0000    0.0000   -0.0001    0.0000    0.0001    0.0000    0.0001    0.0001
          39    0.0000    0.0000    0.0000    0.0000   -0.0001    0.0000    0.0000    0.0000
          40    0.1108    0.1833   -0.0675    0.0471   -0.0069    0.0927    0.0412    0.2393
          41   -0.0726   -0.1512    0.0505   -0.0304    0.0052   -0.0707   -0.0207   -0.1484
          42    0.0074    0.0123   -0.0042    0.0042   -0.0010    0.0054    0.0054    0.0205
          43    0.0105   -0.0450   -0.0061    0.0037    0.0005   -0.0096   -0.0042   -0.0004
          44    0.2187   -0.1317   -0.1186    0.0804   -0.0117    0.2572    0.1397   -0.1192
          45    0.0170   -0.0131   -0.0125    0.0088   -0.0008    0.0168    0.0119   -0.0102
          46   -0.1375    0.1242   -0.1325    0.1178    0.0062   -0.1805    0.1394   -0.0960
          47   -0.0713    0.1090   -0.0590    0.0510    0.0022   -0.0765    0.0719   -0.0359
          48   -0.0067    0.0113   -0.0212    0.0185    0.0007   -0.0200    0.0246   -0.0171
          49    0.0646    0.2277    0.0722   -0.0537   -0.0018    0.0766   -0.0639   -0.2274
          50   -0.0642   -0.1159   -0.0242    0.0218    0.0007   -0.0379    0.0549    0.1584
          51    0.0007    0.0294    0.0108   -0.0077   -0.0003    0.0089   -0.0060   -0.0231
          52   -0.0124   -0.0008   -0.0283   -0.0147    0.0004    0.0081    0.0003    0.0034
          53    0.0088    0.0024    0.0018    0.0076    0.0052   -0.0135   -0.0063   -0.0056
          54    0.0016    0.0004    0.0002    0.0015   -0.0293   -0.0032   -0.0020   -0.0010
          55    0.0069   -0.0025    0.1300    0.1517   -0.1140    0.0128   -0.0283    0.0060
          56    0.0163   -0.0010    0.0252   -0.0036   -0.2361   -0.0225   -0.0234   -0.0141
          57   -0.0065    0.0009   -0.1050   -0.1298   -0.0029   -0.0139    0.0187   -0.0081
          58    0.0092   -0.0024    0.1408    0.1602    0.1064    0.0198   -0.0247    0.0071
          59    0.0189    0.0014   -0.0093   -0.0437    0.2379   -0.0124   -0.0112   -0.0123
          60    0.0120   -0.0009    0.1044    0.1160    0.0600    0.0092   -0.0214    0.0034
          61    0.0050   -0.0020   -0.0167   -0.0792   -0.0019   -0.0040    0.0616    0.0019
          62   -0.0056    0.0025    0.0020    0.0678   -0.0520   -0.0024   -0.0580   -0.0037
          63    0.0017    0.0011    0.0046    0.0139    0.3870    0.0115   -0.0041    0.0015


   Root No.      41        42        43        44        45        46        47        48

                41 A      42 A      43 A      44 A      45 A      46 A      47 A      48 A   

                1288.0    1298.5    1349.2    1462.5    1515.0    1598.3    1641.2    1721.0
  
           1    0.1002    0.0040    0.0260   -0.0029   -0.0029    0.0064    0.0054    0.0464
           2   -0.0758   -0.0111   -0.0242    0.0015    0.0017    0.0027    0.0025    0.0617
           3   -0.0117   -0.0025   -0.0037    0.0003    0.0003    0.0006    0.0005    0.0112
           4   -0.0383    0.0022   -0.0476   -0.0088    0.0168   -0.0203    0.0087    0.0534
           5    0.0174   -0.0035    0.0292    0.0123   -0.0203   -0.0283    0.0163    0.1111
           6    0.0011    0.0006   -0.0002   -0.0014   -0.0008    0.0007    0.0014    0.0004
           7   -0.0036    0.0011    0.0057   -0.0014   -0.0024    0.0121   -0.0056   -0.0460
           8   -0.0083    0.0009    0.0052   -0.0045   -0.0070    0.0236   -0.0036   -0.0786
           9   -0.0002   -0.0002    0.0001    0.0003    0.0001   -0.0004   -0.0004    0.0001
          10   -0.0275   -0.0091    0.0681    0.0740   -0.0112   -0.0960   -0.1216   -0.0264
          11    0.0041    0.0070   -0.0325   -0.0122    0.1005    0.0116   -0.0988    0.0014
          12   -0.0039   -0.0007    0.0071    0.0094    0.0062   -0.0128   -0.0255   -0.0036
          13    0.0186    0.0033   -0.0121   -0.0322    0.0669    0.1323    0.0550    0.0307
          14    0.0073    0.0015   -0.0357   -0.0537   -0.0355   -0.0820    0.0454   -0.0135
          15    0.0036    0.0007   -0.0048   -0.0091    0.0072    0.0133    0.0116    0.0033
          16    0.0155    0.0050   -0.0514   -0.0342   -0.0413   -0.0490   -0.0492   -0.0067
          17    0.0204    0.0052   -0.0272    0.0815   -0.0304    0.0812   -0.1451    0.0141
          18    0.0043    0.0012   -0.0100    0.0017   -0.0088   -0.0007   -0.0196    0.0001
          19   -0.0068   -0.0010    0.0028    0.0873    0.0112    0.0860    0.1114    0.0079
          20   -0.0191   -0.0061    0.0584    0.0054    0.0502   -0.0168    0.1063   -0.0050
          21   -0.0030   -0.0007    0.0054    0.0134    0.0057    0.0117    0.0255    0.0008
          22    0.0096    0.0006    0.0253   -0.0332    0.0568   -0.1307   -0.0248   -0.0189
          23   -0.0191   -0.0064    0.0243   -0.0539   -0.0449    0.0911   -0.0617    0.0224
          24   -0.0001   -0.0005    0.0062   -0.0097    0.0050   -0.0121   -0.0092   -0.0007
          25   -0.0284   -0.0034    0.0590   -0.0427   -0.0919    0.0571    0.0394   -0.0021
          26    0.0123    0.0055   -0.0452    0.0654   -0.0338   -0.0866    0.1452   -0.0302
          27   -0.0031   -0.0001    0.0043   -0.0001   -0.0166    0.0005    0.0189   -0.0031
          28   -0.0129   -0.0074   -0.0505    0.0148    0.0224   -0.0121   -0.0044    0.1137
          29    0.0092    0.0038    0.0320   -0.0046   -0.0103   -0.0252   -0.0065    0.1710
          30   -0.0004   -0.0002   -0.0003    0.0024    0.0002   -0.0084   -0.0011    0.0555
          31    0.0092    0.0022   -0.0012   -0.0029    0.0069    0.0119   -0.0035   -0.0741
          32    0.0145    0.0030   -0.0051   -0.0029    0.0077    0.0171    0.0007   -0.1113
          33    0.0049    0.0010   -0.0012   -0.0013    0.0029    0.0061   -0.0006   -0.0371
          34    0.0002    0.0054    0.0128    0.0027   -0.0017   -0.0047   -0.0009   -0.0386
          35   -0.0306   -0.0071   -0.0144    0.0030    0.0020    0.0024   -0.0057   -0.0765
          36   -0.0054   -0.0010   -0.0022    0.0005    0.0005    0.0002   -0.0010   -0.0142
          37   -0.0007    0.0000   -0.0002   -0.0001   -0.0001    0.0000    0.0001   -0.0002
          38   -0.0004    0.0001   -0.0003    0.0000    0.0001    0.0000    0.0000    0.0002
          39   -0.0001    0.0000   -0.0001    0.0000    0.0000    0.0000    0.0000    0.0000
          40    0.1099    0.0147   -0.1484   -0.0223   -0.1294   -0.0319    0.0125   -0.0060
          41   -0.0539   -0.0053    0.0525   -0.0472    0.0971    0.0254    0.0325    0.0105
          42    0.0096    0.0008   -0.0160   -0.0073   -0.0109   -0.0037    0.0065    0.0013
          43    0.0154    0.0048   -0.0489   -0.0329   -0.0270   -0.0287   -0.0274   -0.0012
          44    0.0176   -0.0046    0.0296   -0.1907    0.0711   -0.0199    0.0571    0.0046
          45    0.0032    0.0002   -0.0057   -0.0219    0.0017   -0.0058    0.0010    0.0001
          46   -0.0324   -0.0082   -0.0474   -0.1466   -0.0714    0.0019   -0.0518    0.0054
          47   -0.0317   -0.0101    0.0323   -0.1088   -0.0045   -0.0357    0.0073   -0.0016
          48   -0.0056   -0.0018   -0.0039   -0.0295   -0.0096   -0.0033   -0.0039    0.0005
          49    0.0028    0.0117   -0.0940   -0.0333   -0.1347    0.0454   -0.0231    0.0162
          50   -0.0150   -0.0133    0.1014   -0.0404    0.0713   -0.0187   -0.0243   -0.0033
          51   -0.0010    0.0009   -0.0070   -0.0093   -0.0158    0.0063   -0.0059    0.0007
          52   -0.0303   -0.0235   -0.0084    0.0011    0.0001    0.0003   -0.0002   -0.0040
          53    0.0508    0.0628    0.0191   -0.0019   -0.0009   -0.0011    0.0002   -0.0030
          54    0.0087    0.0107    0.0030   -0.0003    0.0000   -0.0002   -0.0001   -0.0003
          55   -0.0456   -0.0218   -0.0101   -0.0001    0.0004    0.0003    0.0002    0.0044
          56    0.1221   -0.2377    0.0009   -0.0018    0.0013    0.0028   -0.0001    0.0007
          57    0.0666   -0.0855    0.0035    0.0003    0.0003    0.0019    0.0008   -0.0124
          58   -0.0490   -0.0151   -0.0093   -0.0001   -0.0004    0.0004    0.0009    0.0040
          59    0.1226   -0.2372    0.0003   -0.0014    0.0008    0.0029    0.0005   -0.0043
          60   -0.0233    0.0090   -0.0024   -0.0007   -0.0003   -0.0009   -0.0003    0.0117
          61   -0.0374    0.2483    0.0200    0.0022   -0.0043   -0.0042    0.0030    0.0453
          62    0.0497   -0.1780   -0.0067   -0.0026    0.0017    0.0034   -0.0016   -0.0281
          63    0.0037   -0.0281   -0.0009   -0.0002   -0.0015    0.0004    0.0012   -0.0056


   Root No.      49        50        51        52        53        54        55        56

                49 A      50 A      51 A      52 A      53 A      54 A      55 A      56 A   

                1732.7    1774.4    2645.2    2651.6    2714.4    2717.2    2723.4    2739.6
  
           1   -0.0765    0.0840   -0.0006   -0.0030    0.0000    0.0000    0.0000    0.0000
           2   -0.1268    0.1758    0.0002   -0.0011    0.0000    0.0000    0.0000    0.0002
           3   -0.0213    0.0305   -0.0026    0.0003    0.0000    0.0000    0.0000    0.0000
           4    0.1192    0.0380    0.0001    0.0006   -0.0002   -0.0003    0.0001   -0.0002
           5    0.1939    0.0835    0.0000    0.0000    0.0003    0.0002   -0.0004    0.0009
           6    0.0024   -0.0005   -0.0002    0.0000    0.0000    0.0000    0.0000    0.0000
           7   -0.0713   -0.0388    0.0001    0.0004    0.0000    0.0000    0.0001   -0.0002
           8   -0.1312   -0.0610    0.0000   -0.0002    0.0000    0.0000    0.0001   -0.0003
           9   -0.0002    0.0003    0.0000    0.0000    0.0000    0.0000    0.0000    0.0000
          10   -0.0025    0.0198    0.0000    0.0000   -0.0008   -0.0021    0.0004    0.0001
          11    0.0037    0.0033    0.0000    0.0002   -0.0005   -0.0019    0.0007   -0.0017
          12    0.0000    0.0034    0.0000    0.0000   -0.0002   -0.0005    0.0001   -0.0001
          13    0.0123   -0.0080    0.0000   -0.0001   -0.0102   -0.0153   -0.0031   -0.0081
          14   -0.0038    0.0016    0.0000   -0.0002   -0.0177   -0.0252   -0.0011   -0.0098
          15    0.0011   -0.0013    0.0000    0.0000   -0.0030   -0.0043   -0.0006   -0.0020
          16   -0.0027    0.0020    0.0000    0.0000    0.0089    0.0065   -0.0221   -0.0286
          17    0.0062    0.0013    0.0000    0.0000   -0.0004   -0.0034   -0.0006    0.0012
          18    0.0000    0.0004    0.0000    0.0000    0.0014    0.0007   -0.0035   -0.0043
          19    0.0062   -0.0026    0.0000   -0.0001   -0.0075    0.0093    0.0088   -0.0101
          20   -0.0028   -0.0017    0.0000    0.0001    0.0127   -0.0134   -0.0236    0.0174
          21    0.0007   -0.0006    0.0000    0.0000   -0.0001    0.0003   -0.0005   -0.0001
          22   -0.0164    0.0008    0.0000    0.0001   -0.0145    0.0094   -0.0087    0.0050
          23    0.0161   -0.0008    0.0000    0.0000   -0.0218    0.0131   -0.0181    0.0098
          24   -0.0013   -0.0002    0.0000    0.0000   -0.0041    0.0026   -0.0029    0.0016
          25    0.0115    0.0026    0.0000    0.0000   -0.0002    0.0008   -0.0007    0.0014
          26   -0.0300   -0.0087    0.0000    0.0000   -0.0015    0.0021   -0.0009    0.0006
          27   -0.0009    0.0002    0.0000    0.0000   -0.0002    0.0003   -0.0002    0.0003
          28   -0.0366   -0.0798    0.0000    0.0000    0.0003   -0.0003    0.0002   -0.0009
          29   -0.0669   -0.1132    0.0001    0.0003   -0.0001    0.0000    0.0000   -0.0002
          30   -0.0206   -0.0383    0.0000    0.0001    0.0000   -0.0001    0.0000   -0.0002
          31    0.0261    0.0521    0.0000   -0.0001    0.0001    0.0000    0.0000    0.0002
          32    0.0340    0.0878    0.0000   -0.0001   -0.0001    0.0001   -0.0001    0.0003
          33    0.0119    0.0285    0.0000    0.0000    0.0000    0.0000    0.0000    0.0001
          34    0.0476   -0.0862    0.0000    0.0001    0.0000    0.0000    0.0000    0.0000
          35    0.1206   -0.1485    0.0001    0.0006    0.0000    0.0000    0.0000   -0.0001
          36    0.0215   -0.0269    0.0000    0.0001    0.0000    0.0000    0.0000    0.0000
          37    0.0002    0.0007    0.0000    0.0000    0.0000    0.0000    0.0000    0.0000
          38   -0.0001   -0.0002    0.0000    0.0000    0.0000    0.0000    0.0000    0.0000
          39    0.0000    0.0000    0.0000    0.0000    0.0000    0.0000    0.0000    0.0000
          40   -0.0138   -0.0073    0.0001    0.0013    0.1434    0.2091    0.0179    0.0827
          41    0.0103   -0.0002    0.0001    0.0022    0.2224    0.3254    0.0296    0.1293
          42    0.0007   -0.0008    0.0000    0.0003    0.0396    0.0578    0.0053    0.0231
          43   -0.0043   -0.0032    0.0003    0.0005   -0.1184   -0.0954    0.2969    0.3635
          44    0.0008   -0.0027    0.0000   -0.0001    0.0057    0.0015   -0.0134   -0.0131
          45   -0.0005   -0.0005    0.0001    0.0001   -0.0177   -0.0143    0.0444    0.0545
          46    0.0036   -0.0013    0.0001    0.0005    0.0886   -0.1000   -0.1501    0.1146
          47    0.0047    0.0039   -0.0002   -0.0010   -0.1719    0.1946    0.2892   -0.2203
          48    0.0016    0.0008    0.0000    0.0000   -0.0007    0.0010    0.0009   -0.0010
          49   -0.0015   -0.0065   -0.0001   -0.0006    0.1763   -0.1103    0.1347   -0.0682
          50    0.0078    0.0063   -0.0002   -0.0010    0.2902   -0.1818    0.2193   -0.1120
[...]
 T-DIPOLE    0.6996        C 18 --  H 20          +23.9% ( 41.5%)     6.1%
 TRAVEL      0.2066        C 18 --  H 19          +23.5% ( 41.2%)     5.2%
 RED. MASS   0.3740        C  1 --  C 18           +2.5% ( 13.3%)     0.8%
 EFF. MASS   1.3055

 VIBRATION   38   38A       ATOM PAIR        ENERGY CONTRIBUTION    RADIAL
 FREQ.      1224.65        C  6 --  H 15          +16.4% ( 53.7%)     9.2%
 T-DIPOLE    1.2356        C  5 --  C  6          +12.9% ( 47.6%)    97.6%
 TRAVEL      0.0989        C  7 --  C  8          +10.5% ( 43.0%)    99.4%
 RED. MASS   0.4600        C  7 --  H 16          +10.3% ( 42.6%)    12.0%
 EFF. MASS   5.6301

 VIBRATION   39   39A       ATOM PAIR        ENERGY CONTRIBUTION    RADIAL
 FREQ.      1246.65        C  9 --  C 10          +16.1% ( 59.6%)    94.0%
 T-DIPOLE    0.8730        C 10 --  C 12          +14.3% ( 56.2%)    84.4%
 TRAVEL      0.0746        C  2 --  C  4          +12.9% ( 53.3%)    94.6%
 RED. MASS   1.4672        C  4 --  C  9           +9.6% ( 45.9%)     0.3%
 EFF. MASS   9.7064

 VIBRATION   40   40A       ATOM PAIR        ENERGY CONTRIBUTION    RADIAL
 FREQ.      1260.20        C  5 --  H 14          +27.7% ( 59.6%)     0.7%
 T-DIPOLE    0.1949        C  8 --  H 17          +26.2% ( 58.0%)     1.3%
 TRAVEL      0.1405        C  8 --  C  9           +6.8% ( 29.6%)    37.7%
 RED. MASS   0.3405        C  4 --  C  9           +6.6% ( 29.0%)     1.0%
 EFF. MASS   2.7088

 VIBRATION   41   41A       ATOM PAIR        ENERGY CONTRIBUTION    RADIAL
 FREQ.      1288.02        C  1 --  C 18          +22.6% ( 75.1%)    88.9%
 T-DIPOLE    1.6413        C  1 --  C  2          +18.4% ( 67.6%)    68.4%
 TRAVEL      0.0715        C  1 --  C 12          +14.7% ( 60.6%)     0.9%
 RED. MASS   3.2369        C  1 -- Br 13          +14.4% ( 59.9%)    22.5%
 EFF. MASS  10.2265

 VIBRATION   42   42A       ATOM PAIR        ENERGY CONTRIBUTION    RADIAL
 FREQ.      1298.51        C 18 --  H 21          +32.5% ( 63.4%)     2.9%
 T-DIPOLE    1.5596        C 18 --  H 19          +25.8% ( 56.5%)     1.6%
 TRAVEL      0.1275        C 18 --  H 20          +23.8% ( 54.3%)     1.6%
 RED. MASS   0.6786        C  1 --  C 18          +12.2% ( 38.8%)    99.0%
 EFF. MASS   3.1957

 VIBRATION   43   43A       ATOM PAIR        ENERGY CONTRIBUTION    RADIAL
 FREQ.      1349.23        C  4 --  C  9          +11.1% ( 49.4%)    99.5%
 T-DIPOLE    3.8504        C  9 --  C 10          +11.0% ( 49.1%)    68.8%
 TRAVEL      0.0679        C  2 --  C  4          +10.7% ( 48.4%)    67.2%
 RED. MASS   1.1992        C  6 --  C  7          +10.3% ( 47.5%)   100.0%
 EFF. MASS  10.8292

 VIBRATION   44   44A       ATOM PAIR        ENERGY CONTRIBUTION    RADIAL
 FREQ.      1462.51        C  6 --  C  7          +12.1% ( 49.2%)     0.0%
 T-DIPOLE    0.1790        C  7 --  C  8          +11.7% ( 48.5%)    77.6%
 TRAVEL      0.0672        C  5 --  C  6          +11.7% ( 48.4%)    79.0%
 RED. MASS   1.4969        C  8 --  C  9          +10.6% ( 46.1%)    83.7%
 EFF. MASS  10.2164        C  4 --  C  9          +10.1% ( 45.1%)     0.0%

 VIBRATION   45   45A       ATOM PAIR        ENERGY CONTRIBUTION    RADIAL
 FREQ.      1515.02        C  4 --  C  9          +19.3% ( 62.0%)   100.0%
 T-DIPOLE    1.9896        C  4 --  C  5          +13.6% ( 52.1%)    28.3%
 TRAVEL      0.0651        C  8 --  C  9          +12.7% ( 50.4%)    27.9%
 RED. MASS   1.8009        C  2 --  C  4           +8.9% ( 42.1%)    93.8%
 EFF. MASS  10.5071

 VIBRATION   46   46A       ATOM PAIR        ENERGY CONTRIBUTION    RADIAL
 FREQ.      1598.32        C  8 --  C  9          +15.5% ( 55.7%)    89.6%
 T-DIPOLE    4.2001        C  4 --  C  5          +14.3% ( 53.5%)    88.7%
 TRAVEL      0.0593        C  5 --  C  6          +13.4% ( 51.8%)    87.7%
 RED. MASS   2.3048        C  7 --  C  8          +13.2% ( 51.4%)    83.3%
 EFF. MASS  12.0164

 VIBRATION   47   47A       ATOM PAIR        ENERGY CONTRIBUTION    RADIAL
 FREQ.      1641.22        C  6 --  C  7          +17.7% ( 58.7%)   100.0%
 T-DIPOLE    1.2168        C  4 --  C  9          +17.5% ( 58.4%)    99.9%
 TRAVEL      0.0586        C  4 --  C  5          +10.2% ( 44.6%)    56.4%
 RED. MASS   2.4691        C  8 --  C  9           +9.0% ( 41.9%)    48.8%
 EFF. MASS  11.9535

 VIBRATION   48   48A       ATOM PAIR        ENERGY CONTRIBUTION    RADIAL
 FREQ.      1721.02        C 10 --  O 11          +32.5% ( 79.0%)   100.0%
 T-DIPOLE   12.1850        C 10 --  C 12          +16.4% ( 56.0%)    29.4%
 TRAVEL      0.0545        C  9 --  C 10          +14.0% ( 51.8%)    23.9%
 RED. MASS   3.0979        C  2 --  O  3          +12.0% ( 47.9%)    99.8%
 EFF. MASS  13.1967

 VIBRATION   49   49A       ATOM PAIR        ENERGY CONTRIBUTION    RADIAL
 FREQ.      1732.70        C  2 --  O  3          +29.3% ( 78.2%)   100.0%
 T-DIPOLE    3.7088        C  1 --  C  2          +18.3% ( 61.8%)    27.0%
 TRAVEL      0.0549        C  1 --  C 12          +14.5% ( 55.0%)    99.6%
 RED. MASS   3.2241        C  2 --  C  4          +12.0% ( 50.1%)    25.3%
 EFF. MASS  12.9226

 VIBRATION   50   50A       ATOM PAIR        ENERGY CONTRIBUTION    RADIAL
 FREQ.      1774.44        C  1 --  C 12          +26.0% ( 73.9%)    99.8%
 T-DIPOLE    3.4447        C 10 --  O 11          +13.2% ( 52.7%)   100.0%
 TRAVEL      0.0549        C 10 --  C 12          +10.9% ( 47.9%)    50.5%
 RED. MASS   2.6551        C  1 --  C  2          +10.9% ( 47.8%)    18.2%
 EFF. MASS  12.6209

 VIBRATION   51   51A       ATOM PAIR        ENERGY CONTRIBUTION    RADIAL
 FREQ.      2645.17        C 18 --  H 19          +57.0% ( 77.9%)    98.6%
 T-DIPOLE    1.1087        C 18 --  H 20          +40.1% ( 65.3%)    96.4%
 TRAVEL      0.1333        C 18 --  H 21           +2.0% ( 14.8%)    28.6%
 RED. MASS   0.4997        C  1 --  C 18           +0.8% (  9.2%)     0.0%
 EFF. MASS   1.4349

 VIBRATION   52   52A       ATOM PAIR        ENERGY CONTRIBUTION    RADIAL
 FREQ.      2651.64        C 18 --  H 21          +64.0% ( 82.6%)    99.5%
 T-DIPOLE    1.0243        C 18 --  H 20          +25.5% ( 52.1%)    91.9%
 TRAVEL      0.1320        C 18 --  H 19           +9.5% ( 31.8%)    75.2%
 RED. MASS   0.5016        C  1 --  C 18           +0.9% (  9.9%)     0.2%
 EFF. MASS   1.4589

 VIBRATION   53   53A       ATOM PAIR        ENERGY CONTRIBUTION    RADIAL
 FREQ.      2714.36        C  8 --  H 17          +47.8% ( 70.0%)   100.0%
 T-DIPOLE    1.1096        C  5 --  H 14          +29.0% ( 54.5%)   100.0%
 TRAVEL      0.1332        C  7 --  H 16          +15.2% ( 39.5%)   100.0%
 RED. MASS   0.3304        C  6 --  H 15           +5.9% ( 24.5%)   100.0%
 EFF. MASS   1.3994

 VIBRATION   54   54A       ATOM PAIR        ENERGY CONTRIBUTION    RADIAL
 FREQ.      2717.24        C  5 --  H 14          +58.4% ( 77.2%)   100.0%
 T-DIPOLE    1.0204        C  7 --  H 16          +18.3% ( 43.2%)   100.0%
 TRAVEL      0.1339        C  8 --  H 17          +17.7% ( 42.5%)   100.0%
 RED. MASS   0.3954        C  6 --  H 15           +3.6% ( 19.1%)    99.4%
 EFF. MASS   1.3836

 VIBRATION   55   55A       ATOM PAIR        ENERGY CONTRIBUTION    RADIAL
 FREQ.      2723.42        C  7 --  H 16          +39.1% ( 63.3%)    99.9%
 T-DIPOLE    1.5442        C  6 --  H 15          +33.3% ( 58.4%)   100.0%
 TRAVEL      0.1334        C  8 --  H 17          +24.9% ( 50.5%)   100.0%
 RED. MASS   0.3174        C  7 --  C  8           +0.8% (  9.0%)    93.2%
 EFF. MASS   1.3907

 VIBRATION   56   56A       ATOM PAIR        ENERGY CONTRIBUTION    RADIAL
 FREQ.      2739.62        C  6 --  H 15          +55.2% ( 74.9%)   100.0%
 T-DIPOLE    1.7115        C  7 --  H 16          +25.1% ( 50.6%)   100.0%
 TRAVEL      0.1301        C  5 --  H 14           +9.8% ( 31.6%)    99.8%
 RED. MASS   0.3741        C  8 --  H 17           +7.2% ( 27.0%)   100.0%
 EFF. MASS   1.4538

 VIBRATION   57   57A       ATOM PAIR        ENERGY CONTRIBUTION    RADIAL
 FREQ.      2763.11        C 18 --  H 20          +33.8% ( 55.8%)    95.4%
 T-DIPOLE    0.9385        C 18 --  H 21          +33.0% ( 55.1%)    95.2%
 TRAVEL      0.1456        C 18 --  H 19          +32.7% ( 54.9%)    95.2%
 RED. MASS   0.3254        C  1 --  C 18           +0.3% (  5.2%)    99.6%
 EFF. MASS   1.1518

 SYMMETRY NUMBER FOR POINT-GROUP C1  =  1


          SYSTEM IS A GROUND STATE


                                                                                                                                                                                                                                                 
 SJ000001677-1_T001S001I001C01: Free energy calculation                                                                                                                                                                                          


          MOLECULE IS NOT LINEAR

          THERE ARE 57 GENUINE VIBRATIONS IN THIS SYSTEM
          THIS THERMODYNAMICS CALCULATION IS LIMITED TO
          MOLECULES WHICH HAVE NO INTERNAL ROTATIONS




                    CALCULATED THERMODYNAMIC PROPERTIES
                                          *
   TEMP. (K)   PARTITION FUNCTION   H.O.F.    ENTHALPY  HEAT CAPACITY ENTROPY
                                   KCAL/MOL   CAL/MOLE    CAL/K/MOL  CAL/K/MOL


 298.00  VIB.     0.3830D+04                  5759.5414    39.2923    35.7231
         ROT.     0.2820D+07                   888.2813     2.9808    32.4950
         INT.     0.1080D+11                  6647.8227    42.2731    68.2181
         TRA.     0.3846D+28                  1480.4688     4.9680    42.4599
         TOT.                      -34.184    8128.2916    47.2411   110.6780

 200.00  VIB.     0.1611D+03                  2532.8861    26.4703    22.7631
         ROT.     0.1550D+07                   596.1620     2.9808    31.3064
         INT.     0.2497D+09                  3129.0481    29.4512    54.0695
         TRA.     0.2115D+28                   993.6033     4.9680    40.4788
         TOT.                      -38.190    4122.6513    34.4192    94.5482

 210.00  VIB.     0.2217D+03                  2804.2333    27.7985    24.0867
         ROT.     0.1668D+07                   625.9700     2.9808    31.4518
         INT.     0.3697D+09                  3430.2034    30.7793    55.5385
         TRA.     0.2275D+28                  1043.2834     4.9680    40.7212
         TOT.                      -37.839    4473.4868    35.7473    96.2597

 220.00  VIB.     0.3054D+03                  3088.8450    29.1233    25.4105
         ROT.     0.1789D+07                   655.7781     2.9808    31.5905
         INT.     0.5463D+09                  3744.6231    32.1041    57.0010
         TRA.     0.2440D+28                  1092.9636     4.9680    40.9523
         TOT.                      -37.475    4837.5867    37.0721    97.9533

 230.00  VIB.     0.4213D+03                  3386.6889    30.4449    26.7343
         ROT.     0.1912D+07                   685.5862     2.9808    31.7230
         INT.     0.8055D+09                  4072.2751    33.4257    58.4572
         TRA.     0.2608D+28                  1142.6437     4.9680    41.1731
         TOT.                      -37.098    5214.9189    38.3938    99.6304

 240.00  VIB.     0.5818D+03                  3697.7320    31.7631    28.0579
         ROT.     0.2038D+07                   715.3943     2.9808    31.8498
         INT.     0.1186D+10                  4413.1263    34.7439    59.9077
         TRA.     0.2780D+28                  1192.3239     4.9680    41.3846
         TOT.                      -36.707    5605.4502    39.7119   101.2922

 250.00  VIB.     0.8039D+03                  4021.9364    33.0771    29.3811
         ROT.     0.2167D+07                   745.2024     2.9808    31.9715
         INT.     0.1742D+10                  4767.1389    36.0579    61.3527
         TRA.     0.2955D+28                  1242.0041     4.9680    41.5874
         TOT.                      -36.304    6009.1429    41.0259   102.9400

 260.00  VIB.     0.1112D+04                  4359.2564    34.3860    30.7040
         ROT.     0.2298D+07                   775.0105     2.9808    32.0884
         INT.     0.2555D+10                  5134.2670    37.3668    62.7924
         TRA.     0.3135D+28                  1291.6842     4.9680    41.7822
         TOT.                      -35.887    6425.9512    42.3348   104.5746

 270.00  VIB.     0.1538D+04                  4709.6358    35.6887    32.0262
         ROT.     0.2432D+07                   804.8186     2.9808    32.2009
         INT.     0.3741D+10                  5514.4544    38.6695    64.2271
         TRA.     0.3317D+28                  1341.3644     4.9680    41.9697
         TOT.                      -35.457    6855.8188    43.6376   106.1968

 280.00  VIB.     0.2130D+04                  5073.0061    36.9840    33.3475
         ROT.     0.2568D+07                   834.6267     2.9808    32.3093
         INT.     0.5470D+10                  5907.6328    39.9648    65.6568
         TRA.     0.3503D+28                  1391.0445     4.9680    42.1504
         TOT.                      -35.014    7298.6774    44.9328   107.8072

 290.00  VIB.     0.2950D+04                  5449.2860    38.2704    34.6678
         ROT.     0.2707D+07                   864.4348     2.9808    32.4139
         INT.     0.7986D+10                  6313.7208    41.2512    67.0817
         TRA.     0.3692D+28                  1440.7247     4.9680    42.3247
         TOT.                      -34.558    7754.4455    46.2192   109.4064

 300.00  VIB.     0.4089D+04                  5838.3805    39.5467    35.9868
         ROT.     0.2848D+07                   894.2429     2.9808    32.5150
         INT.     0.1164D+11                  6732.6234    42.5275    68.5017
         TRA.     0.3885D+28                  1490.4049     4.9680    42.4931
         TOT.                      -34.090    8223.0283    47.4955   110.9949

 310.00  VIB.     0.5668D+04                  6240.1811    40.8114    37.3041
         ROT.     0.2992D+07                   924.0510     2.9808    32.6127
         INT.     0.1696D+11                  7164.2321    43.7922    69.9169
         TRA.     0.4081D+28                  1540.0850     4.9680    42.6560
         TOT.                      -33.608    8704.3172    48.7603   112.5729

 320.00  VIB.     0.7859D+04                  6654.5663    42.0634    38.6197
         ROT.     0.3138D+07                   953.8591     2.9808    32.7074
         INT.     0.2466D+11                  7608.4255    45.0442    71.3270
         TRA.     0.4280D+28                  1589.7652     4.9680    42.8138
         TOT.                      -33.115    9198.1907    50.0122   114.1408

 330.00  VIB.     0.1090D+05                  7081.4023    43.3014    39.9330
         ROT.     0.3286D+07                   983.6672     2.9808    32.7991
         INT.     0.3582D+11                  8065.0695    46.2822    72.7321
         TRA.     0.4482D+28                  1639.4454     4.9680    42.9666
         TOT.                      -32.608    9704.5149    51.2502   115.6987

 340.00  VIB.     0.1512D+05                  7520.5435    44.5243    41.2439
         ROT.     0.3436D+07                  1013.4753     2.9808    32.8881
         INT.     0.5196D+11                  8534.0188    47.5051    74.1319
         TRA.     0.4687D+28                  1689.1255     4.9680    43.1150
         TOT.                      -32.090   10223.1443    52.4731   117.2469

 350.00  VIB.     0.2098D+05                  7971.8340    45.7311    42.5520
         ROT.     0.3589D+07                  1043.2834     2.9808    32.9745
         INT.     0.7530D+11                  9015.1174    48.7119    75.5264
         TRA.     0.4896D+28                  1738.8057     4.9680    43.2590
         TOT.                      -31.559   10753.9231    53.6799   118.7854

 360.00  VIB.     0.2911D+05                  8435.1088    46.9210    43.8570
         ROT.     0.3744D+07                  1073.0915     2.9808    33.0584
         INT.     0.1090D+12                  9508.2003    49.9018    76.9154
         TRA.     0.5107D+28                  1788.4859     4.9680    43.3989
         TOT.                      -31.016   11296.6862    54.8698   120.3143

 370.00  VIB.     0.4039D+05                  8910.1945    48.0932    45.1586
         ROT.     0.3901D+07                  1102.8996     2.9808    33.1401
         INT.     0.1576D+12                 10013.0941    51.0740    78.2987
         TRA.     0.5321D+28                  1838.1660     4.9680    43.5350
         TOT.                      -30.461   11851.2601    56.0420   121.8337

 380.00  VIB.     0.5604D+05                  9396.9108    49.2470    46.4565
         ROT.     0.4060D+07                  1132.7077     2.9808    33.2196
         INT.     0.2275D+12                 10529.6185    52.2278    79.6761
         TRA.     0.5538D+28                  1887.8462     4.9680    43.6675
         TOT.                      -29.895   12417.4646    57.1958   123.3437

 390.00  VIB.     0.7775D+05                  9895.0715    50.3820    47.7504
         ROT.     0.4221D+07                  1162.5158     2.9808    33.2970
         INT.     0.3282D+12                 11057.5873    53.3628    81.0475
         TRA.     0.5759D+28                  1937.5263     4.9680    43.7966
         TOT.                      -29.318   12995.1136    58.3308   124.8441

 400.00  VIB.     0.1079D+06                 10404.4859    51.4977    49.0401
         ROT.     0.4385D+07                  1192.3239     2.9808    33.3725
         INT.     0.4729D+12                 11596.8098    54.4785    82.4126
         TRA.     0.5981D+28                  1987.2065     4.9680    43.9224
         TOT.                      -28.729   13584.0163    59.4465   126.3350

   *: NOTE: HEATS OF FORMATION ARE RELATIVE TO THE
             ELEMENTS IN THEIR STANDARD STATE AT 298K
              (=  Standard Enthalpy of Formation).
            Heat of Formation at T is calculated as [Escf + (HT - H298.15)-.

            Hvib:  Zero-point energy is not included.
                   Wi < 100 cm-1 are not included.
            Hrot = (3/2)RT
            Htra = (3/2)RT + pV = (5/2)RT

            Heat capacity is Cp, not Cv

                 See Section 8.20 in Manual for further information.   (by TH).

           FORCE CONSTANT IN CARTESIAN COORDINATES (Millidynes/A)

    ATOM   CHEMICAL       X               Y               Z
   NUMBER   SYMBOL  FORCE CONSTANT  FORCE CONSTANT  FORCE CONSTANT

      1       C        9.074088       12.487653        2.675445
      2       C        8.593157       12.209367        2.572901
      3       O        4.196374       10.098244        0.293936
      4       C       10.583359       10.169364        2.372568
      5       C        9.848279        9.474794        2.406952
      6       C        9.297217       10.078695        2.433103
      7       C        9.552182        9.765975        2.458965
      8       C        9.618352        9.694412        2.430836
      9       C        9.906605       10.779571        2.417859
     10       C        9.322785       11.343432        3.387200
     11       O        4.359717        8.788960        1.265093
     12       C        7.141194       11.312186        1.856769
     13      Br        3.563043        0.579322        0.103457
     14       H        1.782497        3.112800        0.475368
     15       H        4.080627        0.823473        0.461732
     16       H        1.503593        3.437782        0.385901
     17       H        1.688939        3.175107        0.451433
     18       C        6.343431        7.348415        5.681339
     19       H        1.788460        0.916341        2.444486
     20       H        1.627355        0.649879        2.875344
     21       H        1.998633        2.692878        0.555680



 TOTAL CPU TIME:             8.21 SECONDS

 == MOPAC DONE ==
