 *******************************************************************************
 ** Site#:  958            For non-commercial use only         Version 9.015L **
 *******************************************************************************
 ** Cite this work as: MOPAC2009, James J. P. Stewart, Stewart Computational  **
 ** Chemistry, Version 9.015L web: HTTP://OpenMOPAC.net                       **
 *******************************************************************************
 **                                                                           **
 **                                MOPAC2009                                  **
 **                                                                           **
 *******************************************************************************

                            PM6 CALCULATION RESULTS


 *******************************************************************************
 *  CALCULATION DONE:                                Tue Sep  6 17:23:30 2011  *
 *  PM6      - The PM6 Hamiltonian to be used
 *  PDBOUT   - PRINT GEOMETY IN PDB FORMAT
 *  MOZYME   - USE LOCALIZED M.O.s IN SOLVING THE SCF EQUATIONS
 *
 *
 *
 *                 CHARGE ON SYSTEM =     0
 *
 *
 *
 *  EPS= 78.400
 *  RSOLV=  1.300
 *  LET      - OVERRIDE SOME SAFETY CHECKS
 *  XYZ      - CARTESIAN COORDINATE SYSTEM TO BE USED
 *  LBFGS    - USE THE LBFGS GEOMETRY OPTIMIZER
 *  1SCF     - DO 1 SCF AND THEN STOP 
 *  T=       - A TIME OF  0.3E+08 SECONDS REQUESTED
 *  DUMP=N   - RESTART FILE WRITTEN EVERY  4320.000 SECONDS
 *  DDMIN=   - MINIMUM TRUST RADIUS  0.000 ANG/RAD
 *  GNORM=   - EXIT WHEN GRADIENT NORM DROPS BELOW .150    
 *  RELSCF   - DEFAULT SCF CRITERION MULTIPLIED BY   0.100    
 *             (DEFAULT SCFCRT= 0.00010)
 *  MULLIK   - THE MULLIKEN ANALYSIS TO BE PERFORMED
 *******************************************************************************
 PM6 T=31532242 DUMP=4320 XYZ EPS=78.40 RSOLV=1.30 MULLIK LBFGS MOZYME PDBOUT +
 CHARGE=-0 RELSCF=0.1 LET DDMIN=0.0 GNORM=0.15 1SCF
 SJ000001185-1_T001S001I001C01_001: Geometry optimization step

   ATOM   CHEMICAL          X               Y              Z
  NUMBER   SYMBOL      (ANGSTROMS)     (ANGSTROMS)    (ANGSTROMS)
 
     1       N         -1.5960000  *  -25.343000  *   11.464000  *
     2       C         -1.1290000  *  -25.675000  *   10.247000  *
     3       O         -1.8180000  *  -25.488000  *    9.262000  *
     4       C          0.2120000  *  -26.262000  *   10.100000  *
     5       C          0.7330000  *  -26.618000  *    8.865000  *
     6       C          2.0060000  *  -27.171000  *    8.779000  *
     7       C          2.7730000  *  -27.377000  *    9.889000  *
     8       C          0.9920000  *  -26.469000  *   11.261000  *
     9       C          2.2820000  *  -27.029000  *   11.160000  *
    10       C          3.0340000  *  -27.222000  *   12.332000  *
    11       C          2.5130000  *  -26.868000  *   13.543000  *
    12       C          1.2420000  *  -26.315000  *   13.657000  *
    13       C          0.4690000  *  -26.109000  *   12.523000  *
    14       C         -0.8780000  *  -25.522000  *   12.589000  *
    15       O         -1.3480000  *  -25.205000  *   13.665000  *
    16       H          0.1490000  *  -26.467000  *    7.970000  *
    17       H          2.3970000  *  -27.443000  *    7.810000  *
    18       H          4.0230000  *  -27.649000  *   12.274000  *
    19       H          3.1020000  *  -27.022000  *   14.435000  *
    20       H          0.8560000  *  -26.045000  *   14.628000  *
    21       C         -2.8780000  *  -24.786000  *   11.565000  *
    22       C         -3.9290000  *  -25.545000  *   12.060000  *
    23       C         -5.1960000  *  -24.990000  *   12.158000  *
    24       H         -3.7610000  *  -26.566000  *   12.367000  *
    25       C         -5.4110000  *  -23.678000  *   11.757000  *
    26       C         -4.3610000  *  -22.922000  *   11.270000  *
    27       H         -6.3970000  *  -23.246000  *   11.834000  *
    28       C         -3.0980000  *  -23.472000  *   11.171000  *
    29       H         -4.5310000  *  -21.901000  *   10.963000  *
    30       H         -2.2810000  *  -22.880000  *   10.786000  *
    31       O         -6.2270000  *  -25.732000  *   12.640000  *
    32       H         -6.7830000  *  -25.264000  *   13.277000  *
    33       N          4.1240000  *  -27.968000  *    9.755000  *
    34       O          4.2500000  *  -29.127000  *    9.399000  *
    35       O          5.1090000  *  -27.295000  *    9.999000  *
 


          CARTESIAN COORDINATES 

    NO.       ATOM         X         Y         Z

     1         N       -1.5960  -25.3430   11.4640
     2         C       -1.1290  -25.6750   10.2470
     3         O       -1.8180  -25.4880    9.2620
     4         C        0.2120  -26.2620   10.1000
     5         C        0.7330  -26.6180    8.8650
     6         C        2.0060  -27.1710    8.7790
     7         C        2.7730  -27.3770    9.8890
     8         C        0.9920  -26.4690   11.2610
     9         C        2.2820  -27.0290   11.1600
    10         C        3.0340  -27.2220   12.3320
    11         C        2.5130  -26.8680   13.5430
    12         C        1.2420  -26.3150   13.6570
    13         C        0.4690  -26.1090   12.5230
    14         C       -0.8780  -25.5220   12.5890
    15         O       -1.3480  -25.2050   13.6650
    16         H        0.1490  -26.4670    7.9700
    17         H        2.3970  -27.4430    7.8100
    18         H        4.0230  -27.6490   12.2740
    19         H        3.1020  -27.0220   14.4350
    20         H        0.8560  -26.0450   14.6280
    21         C       -2.8780  -24.7860   11.5650
    22         C       -3.9290  -25.5450   12.0600
    23         C       -5.1960  -24.9900   12.1580
    24         H       -3.7610  -26.5660   12.3670
    25         C       -5.4110  -23.6780   11.7570
    26         C       -4.3610  -22.9220   11.2700
    27         H       -6.3970  -23.2460   11.8340
    28         C       -3.0980  -23.4720   11.1710
    29         H       -4.5310  -21.9010   10.9630
    30         H       -2.2810  -22.8800   10.7860
    31         O       -6.2270  -25.7320   12.6400
    32         H       -6.7830  -25.2640   13.2770
    33         N        4.1240  -27.9680    9.7550
    34         O        4.2500  -29.1270    9.3990
    35         O        5.1090  -27.2950    9.9990

 General Reference for PM6:
 "Optimization of Parameters for Semiempirical Methods V: Modification of NDDO Approximations
 and Application to 70 Elements", J. J. P. Stewart, J. Mol. Mod., 13, 1173-1213 (2007)
 URL: http://www.springerlink.com/content/ar33482301010477/fulltext.pdf

           Empirical Formula: C18 H10 N2 O5  =    35 atoms



      MOLECULAR POINT GROUP   :   C1  
 
   NUMBER AND TYPES OF BONDS IDENTIFIED
 
         SIGMA BONDS               39
         LONE PAIRS                12
         NORMAL PI BONDS            4
         AROMATIC RING PI BONDS     6
 

                  Ramachandran Angles
              Residue    phi    psi  omega

  
  SCF CRITERION =    0.1000E-02

 -------------------------------------------------------------------------------
 PM6 T=31532242 DUMP=4320 XYZ EPS=78.40 RSOLV=1.30 MULLIK LBFGS MOZYME PDBOUT +
 CHARGE=-0 RELSCF=0.1 LET DDMIN=0.0 GNORM=0.15 1SCF
 SJ000001185-1_T001S001I001C01_001: Geometry optimization step



     1SCF WAS SPECIFIED, SO BFGS WAS NOT USED                 
     SCF FIELD WAS ACHIEVED                                   


                               PM6     CALCULATION
                                                       MOPAC2009 (Version: 9.015L)
                                                       Tue Sep  6 17:23:31 2011




          FINAL HEAT OF FORMATION =        -46.40931 KCAL =    -194.17653 KJ
          VAN DER WAALS AREA      =        312.65 SQUARE ANGSTROMS


          TOTAL ENERGY            =      -4153.70276 EV
          ELECTRONIC ENERGY       =     -29687.80537 EV
          CORE-CORE REPULSION     =      25534.10261 EV
          DIELECTRIC ENERGY       =         -1.08706 EV
          COSMO AREA              =        312.65 SQUARE ANGSTROMS
          COSMO VOLUME            =        351.71 CUBIC ANGSTROMS

          NO. OF FILLED LEVELS    =         61
          MOLECULAR WEIGHT        =        334.287

          MOLECULAR DIMENSIONS (Angstroms)

            Atom       Atom       Distance
            O    34    H    27    12.40460
            H    19    H    16     6.96331
            H    30    O    31     4.55472


          SCF CALCULATIONS        =          2
          COMPUTATION TIME        =          0.570 SECONDS




   ATOM           CHEMICAL             X               Y              Z
  NUMBER           SYMBOL         (ANGSTROMS)     (ANGSTROMS)    (ANGSTROMS)
 
     1       N(     1  N     )   -1.5960000  *  -25.343000  *   11.464000  *
     2       C(     2  C     )   -1.1290000  *  -25.675000  *   10.247000  *
     3       O(     3  O     )   -1.8180000  *  -25.488000  *    9.262000  *
     4       C(     4  C     )    0.2120000  *  -26.262000  *   10.100000  *
     5       C(     5  C     )    0.7330000  *  -26.618000  *    8.865000  *
     6       C(     6  C     )    2.0060000  *  -27.171000  *    8.779000  *
     7       C(     7  C     )    2.7730000  *  -27.377000  *    9.889000  *
     8       C(     8  C     )    0.9920000  *  -26.469000  *   11.261000  *
     9       C(     9  C     )    2.2820000  *  -27.029000  *   11.160000  *
    10       C(    10  C     )    3.0340000  *  -27.222000  *   12.332000  *
    11       C(    11  C     )    2.5130000  *  -26.868000  *   13.543000  *
    12       C(    12  C     )    1.2420000  *  -26.315000  *   13.657000  *
    13       C(    13  C     )    0.4690000  *  -26.109000  *   12.523000  *
    14       C(    14  C     )   -0.8780000  *  -25.522000  *   12.589000  *
    15       O(    15  O     )   -1.3480000  *  -25.205000  *   13.665000  *
    16       H(    16  C     )    0.1490000  *  -26.467000  *    7.970000  *
    17       H(    17  C     )    2.3970000  *  -27.443000  *    7.810000  *
    18       H(    18  C     )    4.0230000  *  -27.649000  *   12.274000  *
    19       H(    19  C     )    3.1020000  *  -27.022000  *   14.435000  *
    20       H(    20  C     )    0.8560000  *  -26.045000  *   14.628000  *
    21       C(    21  C     )   -2.8780000  *  -24.786000  *   11.565000  *
    22       C(    22  C     )   -3.9290000  *  -25.545000  *   12.060000  *
    23       C(    23  C     )   -5.1960000  *  -24.990000  *   12.158000  *
    24       H(    24  C     )   -3.7610000  *  -26.566000  *   12.367000  *
    25       C(    25  C     )   -5.4110000  *  -23.678000  *   11.757000  *
    26       C(    26  C     )   -4.3610000  *  -22.922000  *   11.270000  *
    27       H(    27  C     )   -6.3970000  *  -23.246000  *   11.834000  *
    28       C(    28  C     )   -3.0980000  *  -23.472000  *   11.171000  *
    29       H(    29  C     )   -4.5310000  *  -21.901000  *   10.963000  *
    30       H(    30  C     )   -2.2810000  *  -22.880000  *   10.786000  *
    31       O(    31  O     )   -6.2270000  *  -25.732000  *   12.640000  *
    32       H(    32  O     )   -6.7830000  *  -25.264000  *   13.277000  *
    33       N(    33  N     )    4.1240000  *  -27.968000  *    9.755000  *
    34       O(    34  O     )    4.2500000  *  -29.127000  *    9.399000  *
    35       O(    35  O     )    5.1090000  *  -27.295000  *    9.999000  *

           Empirical Formula: C18 H10 N2 O5  =    35 atoms



              NET ATOMIC CHARGES AND DIPOLE CONTRIBUTIONS

  ATOM NO.   TYPE          CHARGE      No. of ELECS.   s-Pop       p-Pop       
    1          N          -0.374161        5.3742     1.47784     3.89633
    2          C           0.642026        3.3580     1.04977     2.30820
    3          O          -0.575918        6.5759     1.84930     4.72661
    4          C          -0.229922        4.2299     1.10437     3.12555
    5          C           0.031211        3.9688     1.10726     2.86153
    6          C          -0.134053        4.1341     1.10260     3.03145
    7          C          -0.071339        4.0713     1.10658     2.96475
    8          C           0.144444        3.8556     1.07050     2.78506
    9          C          -0.056023        4.0560     1.07112     2.98490
   10          C          -0.054378        4.0544     1.10780     2.94658
   11          C          -0.202313        4.2023     1.10331     3.09901
   12          C           0.068981        3.9310     1.11044     2.82058
   13          C          -0.288321        4.2883     1.09831     3.19001
   14          C           0.650031        3.3500     1.05022     2.29975
   15          O          -0.583471        6.5835     1.84871     4.73476
   16          H           0.191813        0.8082     0.80819
   17          H           0.204204        0.7958     0.79580
   18          H           0.177237        0.8228     0.82276
   19          H           0.192506        0.8075     0.80749
   20          H           0.178870        0.8211     0.82113
   21          C           0.236395        3.7636     1.05073     2.71288
   22          C          -0.345643        4.3456     1.10607     3.23957
   23          C           0.361558        3.6384     1.06114     2.57731
   24          H           0.203254        0.7967     0.79675
   25          C          -0.341002        4.3410     1.11188     3.22912
   26          C          -0.009749        4.0097     1.09767     2.91207
   27          H           0.192642        0.8074     0.80736
   28          C          -0.277080        4.2771     1.10604     3.17104
   29          H           0.164592        0.8354     0.83541
   30          H           0.188844        0.8112     0.81116
   31          O          -0.535490        6.5355     1.77712     4.75837
   32          H           0.373885        0.6261     0.62611
   33          N           0.840020        4.1600     1.30568     2.85430
   34          O          -0.480186        6.4802     1.91793     4.56226
   35          O          -0.483464        6.4835     1.91725     4.56621


          CARTESIAN COORDINATES 

    NO.       ATOM               X         Y         Z

     1         N                 -1.5960  -25.3430   11.4640
     2         C                 -1.1290  -25.6750   10.2470
     3         O                 -1.8180  -25.4880    9.2620
     4         C                  0.2120  -26.2620   10.1000
     5         C                  0.7330  -26.6180    8.8650
     6         C                  2.0060  -27.1710    8.7790
     7         C                  2.7730  -27.3770    9.8890
     8         C                  0.9920  -26.4690   11.2610
     9         C                  2.2820  -27.0290   11.1600
    10         C                  3.0340  -27.2220   12.3320
    11         C                  2.5130  -26.8680   13.5430
    12         C                  1.2420  -26.3150   13.6570
    13         C                  0.4690  -26.1090   12.5230
    14         C                 -0.8780  -25.5220   12.5890
    15         O                 -1.3480  -25.2050   13.6650
    16         H                  0.1490  -26.4670    7.9700
    17         H                  2.3970  -27.4430    7.8100
    18         H                  4.0230  -27.6490   12.2740
    19         H                  3.1020  -27.0220   14.4350
    20         H                  0.8560  -26.0450   14.6280
    21         C                 -2.8780  -24.7860   11.5650
    22         C                 -3.9290  -25.5450   12.0600
    23         C                 -5.1960  -24.9900   12.1580
    24         H                 -3.7610  -26.5660   12.3670
    25         C                 -5.4110  -23.6780   11.7570
    26         C                 -4.3610  -22.9220   11.2700
    27         H                 -6.3970  -23.2460   11.8340
    28         C                 -3.0980  -23.4720   11.1710
    29         H                 -4.5310  -21.9010   10.9630
    30         H                 -2.2810  -22.8800   10.7860
    31         O                 -6.2270  -25.7320   12.6400
    32         H                 -6.7830  -25.2640   13.2770
    33         N                  4.1240  -27.9680    9.7550
    34         O                  4.2500  -29.1270    9.3990
    35         O                  5.1090  -27.2950    9.9990


          ATOMIC ORBITAL ELECTRON POPULATIONS

   1.47784   1.20910   1.54062   1.14660   1.04977   0.82904   0.70636   0.77281
   1.84930   1.64706   1.59477   1.48478   1.10437   1.01430   1.09726   1.01399
   1.10726   0.96469   0.86596   1.03088   1.10260   0.98878   0.97882   1.06385
   1.10658   0.91115   1.04172   1.01189   1.07050   0.93573   0.91873   0.93060
   1.07112   0.99413   1.04062   0.95016   1.10780   1.05080   0.93531   0.96047
   1.10331   1.02009   1.01218   1.06674   1.11044   0.94253   0.84093   1.03712
   1.09831   1.02538   1.15014   1.01450   1.05022   0.82375   0.70311   0.77289
   1.84871   1.74307   1.57561   1.41609   0.80819   0.79580   0.82276   0.80749
   0.82113   1.05073   0.81394   0.92949   0.96945   1.10607   0.98777   1.12510
   1.12670   1.06114   0.82314   0.87605   0.87812   0.79675   1.11188   1.10500
   1.03009   1.09403   1.09767   0.94292   1.05066   0.91850   0.80736   1.10604
   1.07047   1.01857   1.08200   0.83541   0.81116   1.77712   1.50229   1.58476
   1.67133   0.62611   1.30568   0.99009   0.94426   0.91995   1.91793   1.89925
   1.14988   1.51312   1.91725   1.38016   1.63425   1.55180

           MULLIKEN POPULATION ANALYSIS



        MULLIKEN POPULATIONS AND CHARGES

      NO.  ATOM   POPULATION      CHARGE
        1    N     5.547295     -0.547295
        2    C     3.274811      0.725189
        3    O     6.594456     -0.594456
        4    C     4.260822     -0.260822
        5    C     4.005940     -0.005940
        6    C     4.187320     -0.187320
        7    C     4.068802     -0.068802
        8    C     3.831280      0.168720
        9    C     4.060578     -0.060578
       10    C     4.099964     -0.099964
       11    C     4.266405     -0.266405
       12    C     3.965696      0.034304
       13    C     4.319232     -0.319232
       14    C     3.266147      0.733853
       15    O     6.602597     -0.602597
       16    H     0.747818      0.252182
       17    H     0.731555      0.268445
       18    H     0.765862      0.234138
       19    H     0.746694      0.253306
       20    H     0.763944      0.236056
       21    C     3.718361      0.281639
       22    C     4.409370     -0.409370
       23    C     3.619795      0.380205
       24    H     0.732896      0.267104
       25    C     4.412068     -0.412068
       26    C     4.047618     -0.047618
       27    H     0.746592      0.253408
       28    C     4.337657     -0.337657
       29    H     0.782458      0.217542
       30    H     0.751356      0.248644
       31    O     6.586123     -0.586123
       32    H     0.591149      0.408851
       33    N     4.212899      0.787101
       34    O     6.470474     -0.470474
       35    O     6.473963     -0.473963



 TOTAL CPU TIME:             0.59 SECONDS

 == MOPAC DONE ==
 *******************************************************************************
 ** Site#:  958            For non-commercial use only         Version 9.015L **
 *******************************************************************************
 ** Cite this work as: MOPAC2009, James J. P. Stewart, Stewart Computational  **
 ** Chemistry, Version 9.015L web: HTTP://OpenMOPAC.net                       **
 *******************************************************************************
 **                                                                           **
 **                                MOPAC2009                                  **
 **                                                                           **
 *******************************************************************************

                            PM6 CALCULATION RESULTS


 *******************************************************************************
 *  CALCULATION DONE:                                Tue Sep  6 17:23:31 2011  *
 *  PM6      - The PM6 Hamiltonian to be used
 *  GEO-OK   - OVERRIDE INTERATOMIC DISTANCE CHECK
 *  MOZYME   - USE LOCALIZED M.O.s IN SOLVING THE SCF EQUATIONS
 *
 *
 *
 *                 CHARGE ON SYSTEM =     0
 *
 *
 *
 *  EPS= 78.400
 *  RSOLV=  1.300
 *  OLDGEO   - PREVIOUS GEOMETRY TO BE USED
 *  T=       - A TIME OF 172800.0 SECONDS REQUESTED
 *  DUMP=N   - RESTART FILE WRITTEN EVERY  4320.000 SECONDS
 *  RELSCF   - DEFAULT SCF CRITERION MULTIPLIED BY   0.100    
 *             (DEFAULT SCFCRT= 0.00010)
 *  THERMO   - THERMODYNAMIC QUANTITIES TO BE CALCULATED
 *******************************************************************************
 PM6 DUMP=4320 MOZYME RELSCF=0.1 THERMO EPS=78.40 RSOLV=1.30 +
 OLDGEO GEO-OK CHARGE=-0
 SJ000001185-1_T001S001I001C01_001: Free energy calculation

   ATOM           CHEMICAL             X               Y              Z
  NUMBER           SYMBOL         (ANGSTROMS)     (ANGSTROMS)    (ANGSTROMS)
 
     1       N(     1  N     )   -1.5960000  *  -25.343000  *   11.464000  *
     2       C(     2  C     )   -1.1290000  *  -25.675000  *   10.247000  *
     3       O(     3  O     )   -1.8180000  *  -25.488000  *    9.262000  *
     4       C(     4  C     )    0.2120000  *  -26.262000  *   10.100000  *
     5       C(     5  C     )    0.7330000  *  -26.618000  *    8.865000  *
     6       C(     6  C     )    2.0060000  *  -27.171000  *    8.779000  *
     7       C(     7  C     )    2.7730000  *  -27.377000  *    9.889000  *
     8       C(     8  C     )    0.9920000  *  -26.469000  *   11.261000  *
     9       C(     9  C     )    2.2820000  *  -27.029000  *   11.160000  *
    10       C(    10  C     )    3.0340000  *  -27.222000  *   12.332000  *
    11       C(    11  C     )    2.5130000  *  -26.868000  *   13.543000  *
    12       C(    12  C     )    1.2420000  *  -26.315000  *   13.657000  *
    13       C(    13  C     )    0.4690000  *  -26.109000  *   12.523000  *
    14       C(    14  C     )   -0.8780000  *  -25.522000  *   12.589000  *
    15       O(    15  O     )   -1.3480000  *  -25.205000  *   13.665000  *
    16       H(    16  C     )    0.1490000  *  -26.467000  *    7.970000  *
    17       H(    17  C     )    2.3970000  *  -27.443000  *    7.810000  *
    18       H(    18  C     )    4.0230000  *  -27.649000  *   12.274000  *
    19       H(    19  C     )    3.1020000  *  -27.022000  *   14.435000  *
    20       H(    20  C     )    0.8560000  *  -26.045000  *   14.628000  *
    21       C(    21  C     )   -2.8780000  *  -24.786000  *   11.565000  *
    22       C(    22  C     )   -3.9290000  *  -25.545000  *   12.060000  *
    23       C(    23  C     )   -5.1960000  *  -24.990000  *   12.158000  *
    24       H(    24  C     )   -3.7610000  *  -26.566000  *   12.367000  *
    25       C(    25  C     )   -5.4110000  *  -23.678000  *   11.757000  *
    26       C(    26  C     )   -4.3610000  *  -22.922000  *   11.270000  *
    27       H(    27  C     )   -6.3970000  *  -23.246000  *   11.834000  *
    28       C(    28  C     )   -3.0980000  *  -23.472000  *   11.171000  *
    29       H(    29  C     )   -4.5310000  *  -21.901000  *   10.963000  *
    30       H(    30  C     )   -2.2810000  *  -22.880000  *   10.786000  *
    31       O(    31  O     )   -6.2270000  *  -25.732000  *   12.640000  *
    32       H(    32  O     )   -6.7830000  *  -25.264000  *   13.277000  *
    33       N(    33  N     )    4.1240000  *  -27.968000  *    9.755000  *
    34       O(    34  O     )    4.2500000  *  -29.127000  *    9.399000  *
    35       O(    35  O     )    5.1090000  *  -27.295000  *    9.999000  *
 


          CARTESIAN COORDINATES 

    NO.       ATOM         X         Y         Z

     1         N       -1.5960  -25.3430   11.4640
     2         C       -1.1290  -25.6750   10.2470
     3         O       -1.8180  -25.4880    9.2620
     4         C        0.2120  -26.2620   10.1000
     5         C        0.7330  -26.6180    8.8650
     6         C        2.0060  -27.1710    8.7790
     7         C        2.7730  -27.3770    9.8890
     8         C        0.9920  -26.4690   11.2610
     9         C        2.2820  -27.0290   11.1600
    10         C        3.0340  -27.2220   12.3320
    11         C        2.5130  -26.8680   13.5430
    12         C        1.2420  -26.3150   13.6570
    13         C        0.4690  -26.1090   12.5230
    14         C       -0.8780  -25.5220   12.5890
    15         O       -1.3480  -25.2050   13.6650
    16         H        0.1490  -26.4670    7.9700
    17         H        2.3970  -27.4430    7.8100
    18         H        4.0230  -27.6490   12.2740
    19         H        3.1020  -27.0220   14.4350
    20         H        0.8560  -26.0450   14.6280
    21         C       -2.8780  -24.7860   11.5650
    22         C       -3.9290  -25.5450   12.0600
    23         C       -5.1960  -24.9900   12.1580
    24         H       -3.7610  -26.5660   12.3670
    25         C       -5.4110  -23.6780   11.7570
    26         C       -4.3610  -22.9220   11.2700
    27         H       -6.3970  -23.2460   11.8340
    28         C       -3.0980  -23.4720   11.1710
    29         H       -4.5310  -21.9010   10.9630
    30         H       -2.2810  -22.8800   10.7860
    31         O       -6.2270  -25.7320   12.6400
    32         H       -6.7830  -25.2640   13.2770
    33         N        4.1240  -27.9680    9.7550
    34         O        4.2500  -29.1270    9.3990
    35         O        5.1090  -27.2950    9.9990

 General Reference for PM6:
 "Optimization of Parameters for Semiempirical Methods V: Modification of NDDO Approximations
 and Application to 70 Elements", J. J. P. Stewart, J. Mol. Mod., 13, 1173-1213 (2007)
 URL: http://www.springerlink.com/content/ar33482301010477/fulltext.pdf

           Empirical Formula: C18 H10 N2 O5  =    35 atoms



      MOLECULAR POINT GROUP   :   C1  
 
   NUMBER AND TYPES OF BONDS IDENTIFIED
 
         SIGMA BONDS               39
         LONE PAIRS                12
         NORMAL PI BONDS            4
         AROMATIC RING PI BONDS     6
 
  SCF CRITERION =    0.1000E-02


          HEAT OF FORMATION =     -46.410917 KCALS/MOLE


          INTERNAL COORDINATE DERIVATIVES

   NUMBER  ATOM       BOND         ANGLE      DIHEDRAL

     1       N
     2       C      7.099093
     3       O    -13.366900     0.525821
     4       C   -105.151503    -8.332659    -0.555475
     5       C    -16.073245   -27.548027     0.644526
     6       C    -15.612887    10.533521     0.079889
     7       C     25.087116   -24.882383    -0.195097
     8       C    -27.592072    14.792564     0.881243
     9       C     -9.004061     6.834287     0.432252
    10       C     -1.082356    -1.462962     0.052163
    11       C      4.004110     2.887442    -0.595475
    12       C      4.865625    15.009633     0.132044
    13       C     -0.081085    23.457683     0.120181
    14       C      9.947108   -30.301994    -0.037768
    15       O      0.132141    12.430946    -0.677642
    16       H     60.548830    91.244225     1.561478
    17       H     32.519970    -2.554234    -0.894707
    18       H     -7.936430   -11.535058     0.014661
    19       H    -16.458077    -2.982819    -0.042158
    20       H     -4.072639    11.425526    -0.253385
    21       C      8.161117    10.640530    -0.009526
    22       C     13.295521    -0.345037     0.033108
    23       C     30.754867   -59.494682    -0.040488
    24       H     -0.628946    11.228420    27.183554
    25       C      4.305570    -1.435141    -9.741759
    26       C      0.993354     5.003665     9.742658
    27       H      9.784543   -18.530413    -6.082247
    28       C      2.012225   -10.230886    -5.933872
    29       H      4.964135    -8.739042     0.132876
    30       H     -9.628623     8.518996   -18.062959
    31       O      0.315977    -5.640148    -8.715922
    32       H     -4.278181     2.789857    -8.900141
    33       N    -10.829771    10.307941    23.554753
    34       O     13.276892    -9.741065    -3.907989
    35       O    -13.041571    13.017241     1.789966


          GRADIENT NORM = 201.03531



 ** GRADIENT IS TOO LARGE TO ALLOW FORCE MATRIX TO BE CALCULATED, (LIMIT=10) **



 EITHER ADD 'LET' OR REDUCE GRADIENT
 USING 'TS' OR OTHER GEOMETRY OPTIMIZER



 TOTAL CPU TIME:             1.26 SECONDS

 == MOPAC DONE ==
