 *******************************************************************************
 ** Site#:  958            For non-commercial use only         Version 9.015L **
 *******************************************************************************
 ** Cite this work as: MOPAC2009, James J. P. Stewart, Stewart Computational  **
 ** Chemistry, Version 9.015L web: HTTP://OpenMOPAC.net                       **
 *******************************************************************************
 **                                                                           **
 **                                MOPAC2009                                  **
 **                                                                           **
 *******************************************************************************

                            PM6 CALCULATION RESULTS


 *******************************************************************************
 *  CALCULATION DONE:                                Tue Sep  6 21:54:50 2011  *
 *  PM6      - The PM6 Hamiltonian to be used
 *  PDBOUT   - PRINT GEOMETY IN PDB FORMAT
 *  MOZYME   - USE LOCALIZED M.O.s IN SOLVING THE SCF EQUATIONS
 *
 *
 *
 *                 CHARGE ON SYSTEM =     0
 *
 *
 *
 *  EPS= 78.400
 *  RSOLV=  1.300
 *  LET      - OVERRIDE SOME SAFETY CHECKS
 *  XYZ      - CARTESIAN COORDINATE SYSTEM TO BE USED
 *  LBFGS    - USE THE LBFGS GEOMETRY OPTIMIZER
 *  1SCF     - DO 1 SCF AND THEN STOP 
 *  T=       - A TIME OF  0.3E+08 SECONDS REQUESTED
 *  DUMP=N   - RESTART FILE WRITTEN EVERY  4320.000 SECONDS
 *  DDMIN=   - MINIMUM TRUST RADIUS  0.000 ANG/RAD
 *  GNORM=   - EXIT WHEN GRADIENT NORM DROPS BELOW .150    
 *  RELSCF   - DEFAULT SCF CRITERION MULTIPLIED BY   0.100    
 *             (DEFAULT SCFCRT= 0.00010)
 *  MULLIK   - THE MULLIKEN ANALYSIS TO BE PERFORMED
 *******************************************************************************
 PM6 T=31515962 DUMP=4320 XYZ EPS=78.40 RSOLV=1.30 MULLIK LBFGS MOZYME PDBOUT +
 CHARGE=-0 RELSCF=0.1 LET DDMIN=0.0 GNORM=0.15 1SCF
 SJ000001504-1_T001S001I001C01_001: Geometry optimization step

   ATOM   CHEMICAL          X               Y              Z
  NUMBER   SYMBOL      (ANGSTROMS)     (ANGSTROMS)    (ANGSTROMS)
 
     1       C         -8.6050000  *  -19.789000  *   12.919000  *
     2       C         -9.7130000  *  -20.020000  *   12.116000  *
     3       C         -9.5750000  *  -20.741000  *   10.937000  *
     4       C         -8.3370000  *  -21.228000  *   10.568000  *
     5       C         -7.2350000  *  -20.998000  *   11.370000  *
     6       C         -7.3680000  *  -20.274000  *   12.541000  *
     7       H        -10.4360000  *  -20.922000  *   10.310000  *
     8       H         -8.2300000  *  -21.789000  *    9.651000  *
     9       H         -6.2670000  *  -21.379000  *   11.079000  *
    10       H         -6.5050000  *  -20.096000  *   13.165000  *
    11       N        -10.9700000  *  -19.524000  *   12.492000  *
    12       C        -11.8280000  *  -20.140000  *   13.324000  *
    13       O        -11.6460000  *  -21.210000  *   13.868000  *
    14       C        -13.0340000  *  -19.294000  *   13.463000  *
    15       C        -12.8320000  *  -18.205000  *   12.702000  *
    16       H        -13.9060000  *  -19.509000  *   14.062000  *
    17       C        -11.4970000  *  -18.357000  *   12.083000  *
    18       H        -13.5130000  *  -17.376000  *   12.570000  *
    19       O        -10.9710000  *  -17.566000  *   11.327000  *
    20       N         -8.7470000  *  -19.021000  *   14.175000  *
    21       O         -8.4300000  *  -17.846000  *   14.210000  *
    22       O         -9.1770000  *  -19.565000  *   15.176000  *
 


          CARTESIAN COORDINATES 

    NO.       ATOM         X         Y         Z

     1         C       -8.6050  -19.7890   12.9190
     2         C       -9.7130  -20.0200   12.1160
     3         C       -9.5750  -20.7410   10.9370
     4         C       -8.3370  -21.2280   10.5680
     5         C       -7.2350  -20.9980   11.3700
     6         C       -7.3680  -20.2740   12.5410
     7         H      -10.4360  -20.9220   10.3100
     8         H       -8.2300  -21.7890    9.6510
     9         H       -6.2670  -21.3790   11.0790
    10         H       -6.5050  -20.0960   13.1650
    11         N      -10.9700  -19.5240   12.4920
    12         C      -11.8280  -20.1400   13.3240
    13         O      -11.6460  -21.2100   13.8680
    14         C      -13.0340  -19.2940   13.4630
    15         C      -12.8320  -18.2050   12.7020
    16         H      -13.9060  -19.5090   14.0620
    17         C      -11.4970  -18.3570   12.0830
    18         H      -13.5130  -17.3760   12.5700
    19         O      -10.9710  -17.5660   11.3270
    20         N       -8.7470  -19.0210   14.1750
    21         O       -8.4300  -17.8460   14.2100
    22         O       -9.1770  -19.5650   15.1760

 General Reference for PM6:
 "Optimization of Parameters for Semiempirical Methods V: Modification of NDDO Approximations
 and Application to 70 Elements", J. J. P. Stewart, J. Mol. Mod., 13, 1173-1213 (2007)
 URL: http://www.springerlink.com/content/ar33482301010477/fulltext.pdf

           Empirical Formula: C10 H6 N2 O4  =    22 atoms



      MOLECULAR POINT GROUP   :   C1  
 
   NUMBER AND TYPES OF BONDS IDENTIFIED
 
         SIGMA BONDS               24
         LONE PAIRS                10
         NORMAL PI BONDS            5
         AROMATIC RING PI BONDS     1
 

                  Ramachandran Angles
              Residue    phi    psi  omega

  
  SCF CRITERION =    0.1000E-02

 -------------------------------------------------------------------------------
 PM6 T=31515962 DUMP=4320 XYZ EPS=78.40 RSOLV=1.30 MULLIK LBFGS MOZYME PDBOUT +
 CHARGE=-0 RELSCF=0.1 LET DDMIN=0.0 GNORM=0.15 1SCF
 SJ000001504-1_T001S001I001C01_001: Geometry optimization step



     1SCF WAS SPECIFIED, SO BFGS WAS NOT USED                 
     SCF FIELD WAS ACHIEVED                                   


                               PM6     CALCULATION
                                                       MOPAC2009 (Version: 9.015L)
                                                       Tue Sep  6 21:54:50 2011




          FINAL HEAT OF FORMATION =        -13.76554 KCAL =     -57.59500 KJ
          VAN DER WAALS AREA      =        216.33 SQUARE ANGSTROMS


          TOTAL ENERGY            =      -2833.51067 EV
          ELECTRONIC ENERGY       =     -16253.47678 EV
          CORE-CORE REPULSION     =      13419.96611 EV
          DIELECTRIC ENERGY       =         -0.89913 EV
          COSMO AREA              =        216.33 SQUARE ANGSTROMS
          COSMO VOLUME            =        235.22 CUBIC ANGSTROMS

          NO. OF FILLED LEVELS    =         40
          MOLECULAR WEIGHT        =        218.168

          MOLECULAR DIMENSIONS (Angstroms)

            Atom       Atom       Distance
            H     9    H    16     8.41127
            H     8    O    21     5.40516
            O    13    O    19     4.35801


          SCF CALCULATIONS        =          2
          COMPUTATION TIME        =          0.209 SECONDS




   ATOM           CHEMICAL             X               Y              Z
  NUMBER           SYMBOL         (ANGSTROMS)     (ANGSTROMS)    (ANGSTROMS)
 
     1       C(     1  C     )   -8.6050000  *  -19.789000  *   12.919000  *
     2       C(     2  C     )   -9.7130000  *  -20.020000  *   12.116000  *
     3       C(     3  C     )   -9.5750000  *  -20.741000  *   10.937000  *
     4       C(     4  C     )   -8.3370000  *  -21.228000  *   10.568000  *
     5       C(     5  C     )   -7.2350000  *  -20.998000  *   11.370000  *
     6       C(     6  C     )   -7.3680000  *  -20.274000  *   12.541000  *
     7       H(     7  C     )  -10.4360000  *  -20.922000  *   10.310000  *
     8       H(     8  C     )   -8.2300000  *  -21.789000  *    9.651000  *
     9       H(     9  C     )   -6.2670000  *  -21.379000  *   11.079000  *
    10       H(    10  C     )   -6.5050000  *  -20.096000  *   13.165000  *
    11       N(    11  N     )  -10.9700000  *  -19.524000  *   12.492000  *
    12       C(    12  C     )  -11.8280000  *  -20.140000  *   13.324000  *
    13       O(    13  O     )  -11.6460000  *  -21.210000  *   13.868000  *
    14       C(    14  C     )  -13.0340000  *  -19.294000  *   13.463000  *
    15       C(    15  C     )  -12.8320000  *  -18.205000  *   12.702000  *
    16       H(    16  C     )  -13.9060000  *  -19.509000  *   14.062000  *
    17       C(    17  C     )  -11.4970000  *  -18.357000  *   12.083000  *
    18       H(    18  C     )  -13.5130000  *  -17.376000  *   12.570000  *
    19       O(    19  O     )  -10.9710000  *  -17.566000  *   11.327000  *
    20       N(    20  N     )   -8.7470000  *  -19.021000  *   14.175000  *
    21       O(    21  O     )   -8.4300000  *  -17.846000  *   14.210000  *
    22       O(    22  O     )   -9.1770000  *  -19.565000  *   15.176000  *

           Empirical Formula: C10 H6 N2 O4  =    22 atoms



              NET ATOMIC CHARGES AND DIPOLE CONTRIBUTIONS

  ATOM NO.   TYPE          CHARGE      No. of ELECS.   s-Pop       p-Pop       
    1          C          -0.212353        4.2124     1.10567     3.10668
    2          C           0.195732        3.8043     1.05043     2.75384
    3          C          -0.183438        4.1834     1.11001     3.07343
    4          C          -0.052206        4.0522     1.10719     2.94502
    5          C          -0.145601        4.1456     1.10656     3.03904
    6          C          -0.049283        4.0493     1.10165     2.94763
    7          H           0.200474        0.7995     0.79953
    8          H           0.182733        0.8173     0.81727
    9          H           0.189937        0.8101     0.81006
   10          H           0.190501        0.8095     0.80950
   11          N          -0.426949        5.4269     1.48222     3.94473
   12          C           0.609435        3.3906     1.06345     2.32711
   13          O          -0.511129        6.5111     1.85219     4.65894
   14          C          -0.214186        4.2142     1.14447     3.06972
   15          C          -0.209238        4.2092     1.14463     3.06461
   16          H           0.228577        0.7714     0.77142
   17          C           0.607575        3.3924     1.06361     2.32882
   18          H           0.228829        0.7712     0.77117
   19          O          -0.510527        6.5105     1.85230     4.65823
   20          N           0.858867        4.1411     1.30066     2.84048
   21          O          -0.488012        6.4880     1.91703     4.57099
   22          O          -0.489735        6.4897     1.91708     4.57266


          CARTESIAN COORDINATES 

    NO.       ATOM               X         Y         Z

     1         C                 -8.6050  -19.7890   12.9190
     2         C                 -9.7130  -20.0200   12.1160
     3         C                 -9.5750  -20.7410   10.9370
     4         C                 -8.3370  -21.2280   10.5680
     5         C                 -7.2350  -20.9980   11.3700
     6         C                 -7.3680  -20.2740   12.5410
     7         H                -10.4360  -20.9220   10.3100
     8         H                 -8.2300  -21.7890    9.6510
     9         H                 -6.2670  -21.3790   11.0790
    10         H                 -6.5050  -20.0960   13.1650
    11         N                -10.9700  -19.5240   12.4920
    12         C                -11.8280  -20.1400   13.3240
    13         O                -11.6460  -21.2100   13.8680
    14         C                -13.0340  -19.2940   13.4630
    15         C                -12.8320  -18.2050   12.7020
    16         H                -13.9060  -19.5090   14.0620
    17         C                -11.4970  -18.3570   12.0830
    18         H                -13.5130  -17.3760   12.5700
    19         O                -10.9710  -17.5660   11.3270
    20         N                 -8.7470  -19.0210   14.1750
    21         O                 -8.4300  -17.8460   14.2100
    22         O                 -9.1770  -19.5650   15.1760


          ATOMIC ORBITAL ELECTRON POPULATIONS

   1.10567   1.03456   1.10630   0.96582   1.05043   0.80896   0.98004   0.96484
   1.11001   1.07470   0.99038   1.00834   1.10719   0.95437   0.95098   1.03967
   1.10656   1.07892   0.98654   0.97359   1.10165   1.00301   0.93745   1.00717
   0.79953   0.81727   0.81006   0.80950   1.48222   1.21588   1.26653   1.46232
   1.06345   0.82089   0.79310   0.71312   1.85219   1.78624   1.34140   1.53131
   1.14447   1.05695   0.98922   1.02354   1.14463   1.01867   1.06735   0.97859
   0.77142   1.06361   0.84043   0.75214   0.73625   0.77117   1.85230   1.69954
   1.53139   1.42730   1.30066   0.91540   0.94774   0.97734   1.91703   1.54544
   1.14020   1.88535   1.91708   1.50168   1.72864   1.34233

           MULLIKEN POPULATION ANALYSIS



        MULLIKEN POPULATIONS AND CHARGES

      NO.  ATOM   POPULATION      CHARGE
        1    C     4.217439     -0.217439
        2    C     3.754177      0.245823
        3    C     4.239497     -0.239497
        4    C     4.102946     -0.102946
        5    C     4.203307     -0.203307
        6    C     4.088734     -0.088734
        7    H     0.736996      0.263004
        8    H     0.759301      0.240699
        9    H     0.750307      0.249693
       10    H     0.749220      0.250780
       11    N     5.594726     -0.594726
       12    C     3.317682      0.682318
       13    O     6.529399     -0.529399
       14    C     4.279634     -0.279634
       15    C     4.274078     -0.274078
       16    H     0.701508      0.298492
       17    C     3.319839      0.680161
       18    H     0.701463      0.298537
       19    O     6.528699     -0.528699
       20    N     4.191903      0.808097
       21    O     6.478681     -0.478681
       22    O     6.480465     -0.480465



 TOTAL CPU TIME:             0.21 SECONDS

 == MOPAC DONE ==
 *******************************************************************************
 ** Site#:  958            For non-commercial use only         Version 9.015L **
 *******************************************************************************
 ** Cite this work as: MOPAC2009, James J. P. Stewart, Stewart Computational  **
 ** Chemistry, Version 9.015L web: HTTP://OpenMOPAC.net                       **
 *******************************************************************************
 **                                                                           **
 **                                MOPAC2009                                  **
 **                                                                           **
 *******************************************************************************

                            PM6 CALCULATION RESULTS


 *******************************************************************************
 *  CALCULATION DONE:                                Tue Sep  6 21:54:50 2011  *
 *  PM6      - The PM6 Hamiltonian to be used
 *  GEO-OK   - OVERRIDE INTERATOMIC DISTANCE CHECK
 *  MOZYME   - USE LOCALIZED M.O.s IN SOLVING THE SCF EQUATIONS
 *
 *
 *
 *                 CHARGE ON SYSTEM =     0
 *
 *
 *
 *  EPS= 78.400
 *  RSOLV=  1.300
 *  OLDGEO   - PREVIOUS GEOMETRY TO BE USED
 *  T=       - A TIME OF 172800.0 SECONDS REQUESTED
 *  DUMP=N   - RESTART FILE WRITTEN EVERY  4320.000 SECONDS
 *  RELSCF   - DEFAULT SCF CRITERION MULTIPLIED BY   0.100    
 *             (DEFAULT SCFCRT= 0.00010)
 *  THERMO   - THERMODYNAMIC QUANTITIES TO BE CALCULATED
 *******************************************************************************
 PM6 DUMP=4320 MOZYME RELSCF=0.1 THERMO EPS=78.40 RSOLV=1.30 +
 OLDGEO GEO-OK CHARGE=-0
 SJ000001504-1_T001S001I001C01_001: Free energy calculation

   ATOM           CHEMICAL             X               Y              Z
  NUMBER           SYMBOL         (ANGSTROMS)     (ANGSTROMS)    (ANGSTROMS)
 
     1       C(     1  C     )   -8.6050000  *  -19.789000  *   12.919000  *
     2       C(     2  C     )   -9.7130000  *  -20.020000  *   12.116000  *
     3       C(     3  C     )   -9.5750000  *  -20.741000  *   10.937000  *
     4       C(     4  C     )   -8.3370000  *  -21.228000  *   10.568000  *
     5       C(     5  C     )   -7.2350000  *  -20.998000  *   11.370000  *
     6       C(     6  C     )   -7.3680000  *  -20.274000  *   12.541000  *
     7       H(     7  C     )  -10.4360000  *  -20.922000  *   10.310000  *
     8       H(     8  C     )   -8.2300000  *  -21.789000  *    9.651000  *
     9       H(     9  C     )   -6.2670000  *  -21.379000  *   11.079000  *
    10       H(    10  C     )   -6.5050000  *  -20.096000  *   13.165000  *
    11       N(    11  N     )  -10.9700000  *  -19.524000  *   12.492000  *
    12       C(    12  C     )  -11.8280000  *  -20.140000  *   13.324000  *
    13       O(    13  O     )  -11.6460000  *  -21.210000  *   13.868000  *
    14       C(    14  C     )  -13.0340000  *  -19.294000  *   13.463000  *
    15       C(    15  C     )  -12.8320000  *  -18.205000  *   12.702000  *
    16       H(    16  C     )  -13.9060000  *  -19.509000  *   14.062000  *
    17       C(    17  C     )  -11.4970000  *  -18.357000  *   12.083000  *
    18       H(    18  C     )  -13.5130000  *  -17.376000  *   12.570000  *
    19       O(    19  O     )  -10.9710000  *  -17.566000  *   11.327000  *
    20       N(    20  N     )   -8.7470000  *  -19.021000  *   14.175000  *
    21       O(    21  O     )   -8.4300000  *  -17.846000  *   14.210000  *
    22       O(    22  O     )   -9.1770000  *  -19.565000  *   15.176000  *
 


          CARTESIAN COORDINATES 

    NO.       ATOM         X         Y         Z

     1         C       -8.6050  -19.7890   12.9190
     2         C       -9.7130  -20.0200   12.1160
     3         C       -9.5750  -20.7410   10.9370
     4         C       -8.3370  -21.2280   10.5680
     5         C       -7.2350  -20.9980   11.3700
     6         C       -7.3680  -20.2740   12.5410
     7         H      -10.4360  -20.9220   10.3100
     8         H       -8.2300  -21.7890    9.6510
     9         H       -6.2670  -21.3790   11.0790
    10         H       -6.5050  -20.0960   13.1650
    11         N      -10.9700  -19.5240   12.4920
    12         C      -11.8280  -20.1400   13.3240
    13         O      -11.6460  -21.2100   13.8680
    14         C      -13.0340  -19.2940   13.4630
    15         C      -12.8320  -18.2050   12.7020
    16         H      -13.9060  -19.5090   14.0620
    17         C      -11.4970  -18.3570   12.0830
    18         H      -13.5130  -17.3760   12.5700
    19         O      -10.9710  -17.5660   11.3270
    20         N       -8.7470  -19.0210   14.1750
    21         O       -8.4300  -17.8460   14.2100
    22         O       -9.1770  -19.5650   15.1760

 General Reference for PM6:
 "Optimization of Parameters for Semiempirical Methods V: Modification of NDDO Approximations
 and Application to 70 Elements", J. J. P. Stewart, J. Mol. Mod., 13, 1173-1213 (2007)
 URL: http://www.springerlink.com/content/ar33482301010477/fulltext.pdf

           Empirical Formula: C10 H6 N2 O4  =    22 atoms



      MOLECULAR POINT GROUP   :   C1  
 
   NUMBER AND TYPES OF BONDS IDENTIFIED
 
         SIGMA BONDS               24
         LONE PAIRS                10
         NORMAL PI BONDS            5
         AROMATIC RING PI BONDS     1
 
  SCF CRITERION =    0.1000E-02


          HEAT OF FORMATION =     -13.767416 KCALS/MOLE


          INTERNAL COORDINATE DERIVATIVES

   NUMBER  ATOM       BOND         ANGLE      DIHEDRAL

     1       C
     2       C     17.207669
     3       C     21.225431     0.766482
     4       C      4.229403   -31.444958    -0.715705
     5       C    -16.238513     4.659036     0.084826
     6       C     -5.445570   -14.649988    -0.039822
     7       H      7.873902   -11.249015     0.741619
     8       H     21.429920    -1.236873    -0.693897
     9       H    -12.221552    -0.019316     0.038324
    10       H     -6.310732   -10.311519    -0.130358
    11       N      6.472800    -9.660601    -0.178170
    12       C     13.415713    -0.873481     0.260162
    13       O     41.860865   -67.072918     0.091205
    14       C    -16.079995    45.583754  -141.018087
    15       C      2.609095    -4.309599    -6.105985
    16       H    -17.059929    27.449807    19.964668
    17       C    -14.768502    30.425569   -19.242883
    18       H      1.172060    -1.048567    -8.503275
    19       O    -37.366834    32.447439   140.168155
    20       N      0.391471    -2.271316     8.107062
    21       O      3.406055    -4.527487     6.150711
    22       O     13.620930     8.148506    -0.665077


          GRADIENT NORM = 241.80824



 ** GRADIENT IS TOO LARGE TO ALLOW FORCE MATRIX TO BE CALCULATED, (LIMIT=10) **



 EITHER ADD 'LET' OR REDUCE GRADIENT
 USING 'TS' OR OTHER GEOMETRY OPTIMIZER



 TOTAL CPU TIME:             0.46 SECONDS

 == MOPAC DONE ==
