 *******************************************************************************
 ** Site#:  958            For non-commercial use only         Version 9.015L **
 *******************************************************************************
 ** Cite this work as: MOPAC2009, James J. P. Stewart, Stewart Computational  **
 ** Chemistry, Version 9.015L web: HTTP://OpenMOPAC.net                       **
 *******************************************************************************
 **                                                                           **
 **                                MOPAC2009                                  **
 **                                                                           **
 *******************************************************************************

                            PM6 CALCULATION RESULTS


 *******************************************************************************
 *  CALCULATION DONE:                                Wed Sep  7 08:45:12 2011  *
 *  PM6      - The PM6 Hamiltonian to be used
 *  PDBOUT   - PRINT GEOMETY IN PDB FORMAT
 *  MOZYME   - USE LOCALIZED M.O.s IN SOLVING THE SCF EQUATIONS
 *
 *
 *
 *                 CHARGE ON SYSTEM =     0
 *
 *
 *
 *  EPS= 78.400
 *  RSOLV=  1.300
 *  LET      - OVERRIDE SOME SAFETY CHECKS
 *  XYZ      - CARTESIAN COORDINATE SYSTEM TO BE USED
 *  LBFGS    - USE THE LBFGS GEOMETRY OPTIMIZER
 *  1SCF     - DO 1 SCF AND THEN STOP 
 *  T=       - A TIME OF  0.3E+08 SECONDS REQUESTED
 *  DUMP=N   - RESTART FILE WRITTEN EVERY  4320.000 SECONDS
 *  DDMIN=   - MINIMUM TRUST RADIUS  0.000 ANG/RAD
 *  GNORM=   - EXIT WHEN GRADIENT NORM DROPS BELOW .150    
 *  RELSCF   - DEFAULT SCF CRITERION MULTIPLIED BY   0.100    
 *             (DEFAULT SCFCRT= 0.00010)
 *  MULLIK   - THE MULLIKEN ANALYSIS TO BE PERFORMED
 *******************************************************************************
 PM6 T=31476940 DUMP=4320 XYZ EPS=78.40 RSOLV=1.30 MULLIK LBFGS MOZYME PDBOUT +
 CHARGE=0 RELSCF=0.1 LET DDMIN=0.0 GNORM=0.15 1SCF
 SJ000001677-2_T001S001I001C01_001: Geometry optimization step

   ATOM   CHEMICAL          X               Y              Z
  NUMBER   SYMBOL      (ANGSTROMS)     (ANGSTROMS)    (ANGSTROMS)
 
     1       C         -2.8220000  *  -25.816000  *   13.291000  *
     2       C         -4.2690000  *  -25.677000  *   13.544000  *
     3       O         -4.6660000  *  -25.199000  *   14.589000  *
     4       C         -5.2300000  *  -26.124000  *   12.512000  *
     5       C         -6.5710000  *  -25.769000  *   12.575000  *
     6       C         -7.4450000  *  -26.207000  *   11.591000  *
     7       C         -6.9910000  *  -26.992000  *   10.549000  *
     8       C         -5.6540000  *  -27.355000  *   10.473000  *
     9       C         -4.7670000  *  -26.924000  *   11.450000  *
    10       C         -3.3350000  *  -27.290000  *   11.402000  *
    11       O         -2.9480000  *  -28.163000  *   10.651000  *
    12       C         -2.3790000  *  -26.576000  *   12.274000  *
    13      Br         -0.5210000  *  -26.734000  *   11.962000  *
    14       H         -6.9320000  *  -25.155000  *   13.388000  *
    15       H         -8.4880000  *  -25.930000  *   11.639000  *
    16       H         -7.6810000  *  -27.326000  *    9.789000  *
    17       H         -5.3040000  *  -27.969000  *    9.656000  *
    18       C         -1.8340000  *  -25.099000  *   14.175000  *
    19       H         -1.2430000  *  -25.829000  *   14.726000  *
    20       H         -1.1750000  *  -24.486000  *   13.560000  *
    21       H         -2.3720000  *  -24.462000  *   14.877000  *
 


          CARTESIAN COORDINATES 

    NO.       ATOM         X         Y         Z

     1         C       -2.8220  -25.8160   13.2910
     2         C       -4.2690  -25.6770   13.5440
     3         O       -4.6660  -25.1990   14.5890
     4         C       -5.2300  -26.1240   12.5120
     5         C       -6.5710  -25.7690   12.5750
     6         C       -7.4450  -26.2070   11.5910
     7         C       -6.9910  -26.9920   10.5490
     8         C       -5.6540  -27.3550   10.4730
     9         C       -4.7670  -26.9240   11.4500
    10         C       -3.3350  -27.2900   11.4020
    11         O       -2.9480  -28.1630   10.6510
    12         C       -2.3790  -26.5760   12.2740
    13        Br       -0.5210  -26.7340   11.9620
    14         H       -6.9320  -25.1550   13.3880
    15         H       -8.4880  -25.9300   11.6390
    16         H       -7.6810  -27.3260    9.7890
    17         H       -5.3040  -27.9690    9.6560
    18         C       -1.8340  -25.0990   14.1750
    19         H       -1.2430  -25.8290   14.7260
    20         H       -1.1750  -24.4860   13.5600
    21         H       -2.3720  -24.4620   14.8770

 General Reference for PM6:
 "Optimization of Parameters for Semiempirical Methods V: Modification of NDDO Approximations
 and Application to 70 Elements", J. J. P. Stewart, J. Mol. Mod., 13, 1173-1213 (2007)
 URL: http://www.springerlink.com/content/ar33482301010477/fulltext.pdf

           Empirical Formula: C11 H7 O2 Br  =    21 atoms



      MOLECULAR POINT GROUP   :   C1  
 
   NUMBER AND TYPES OF BONDS IDENTIFIED
 
         SIGMA BONDS               22
         LONE PAIRS                 7
         NORMAL PI BONDS            3
         AROMATIC RING PI BONDS     3
 

                  Ramachandran Angles
              Residue    phi    psi  omega

  
  SCF CRITERION =    0.1000E-02

 -------------------------------------------------------------------------------
 PM6 T=31476940 DUMP=4320 XYZ EPS=78.40 RSOLV=1.30 MULLIK LBFGS MOZYME PDBOUT +
 CHARGE=0 RELSCF=0.1 LET DDMIN=0.0 GNORM=0.15 1SCF
 SJ000001677-2_T001S001I001C01_001: Geometry optimization step



     1SCF WAS SPECIFIED, SO BFGS WAS NOT USED                 
     SCF FIELD WAS ACHIEVED                                   


                               PM6     CALCULATION
                                                       MOPAC2009 (Version: 9.015L)
                                                       Wed Sep  7 08:45:12 2011




          FINAL HEAT OF FORMATION =        -29.45812 KCAL =    -123.25276 KJ
          VAN DER WAALS AREA      =        213.68 SQUARE ANGSTROMS


          TOTAL ENERGY            =      -2253.37336 EV
          ELECTRONIC ENERGY       =     -12358.11052 EV
          CORE-CORE REPULSION     =      10104.73716 EV
          DIELECTRIC ENERGY       =         -0.50386 EV
          COSMO AREA              =        213.68 SQUARE ANGSTROMS
          COSMO VOLUME            =        225.35 CUBIC ANGSTROMS

          NO. OF FILLED LEVELS    =         35
          MOLECULAR WEIGHT        =        251.079

          MOLECULAR DIMENSIONS (Angstroms)

            Atom       Atom       Distance
            H    16    H    19     8.25002
            H    14    O    11     5.61742
            O     3    H    20     1.94613


          SCF CALCULATIONS        =          2
          COMPUTATION TIME        =          0.157 SECONDS




   ATOM           CHEMICAL             X               Y              Z
  NUMBER           SYMBOL         (ANGSTROMS)     (ANGSTROMS)    (ANGSTROMS)
 
     1       C(     1  C     )   -2.8220000  *  -25.816000  *   13.291000  *
     2       C(     2  C     )   -4.2690000  *  -25.677000  *   13.544000  *
     3       O(     3  O     )   -4.6660000  *  -25.199000  *   14.589000  *
     4       C(     4  C     )   -5.2300000  *  -26.124000  *   12.512000  *
     5       C(     5  C     )   -6.5710000  *  -25.769000  *   12.575000  *
     6       C(     6  C     )   -7.4450000  *  -26.207000  *   11.591000  *
     7       C(     7  C     )   -6.9910000  *  -26.992000  *   10.549000  *
     8       C(     8  C     )   -5.6540000  *  -27.355000  *   10.473000  *
     9       C(     9  C     )   -4.7670000  *  -26.924000  *   11.450000  *
    10       C(    10  C     )   -3.3350000  *  -27.290000  *   11.402000  *
    11       O(    11  O     )   -2.9480000  *  -28.163000  *   10.651000  *
    12       C(    12  C     )   -2.3790000  *  -26.576000  *   12.274000  *
    13      Br(    13 Br     )   -0.5210000  *  -26.734000  *   11.962000  *
    14       H(    14  C     )   -6.9320000  *  -25.155000  *   13.388000  *
    15       H(    15  C     )   -8.4880000  *  -25.930000  *   11.639000  *
    16       H(    16  C     )   -7.6810000  *  -27.326000  *    9.789000  *
    17       H(    17  C     )   -5.3040000  *  -27.969000  *    9.656000  *
    18       C(    18  C     )   -1.8340000  *  -25.099000  *   14.175000  *
    19       H(    19  C     )   -1.2430000  *  -25.829000  *   14.726000  *
    20       H(    20  C     )   -1.1750000  *  -24.486000  *   13.560000  *
    21       H(    21  C     )   -2.3720000  *  -24.462000  *   14.877000  *

           Empirical Formula: C11 H7 O2 Br  =    21 atoms



              NET ATOMIC CHARGES AND DIPOLE CONTRIBUTIONS

  ATOM NO.   TYPE          CHARGE      No. of ELECS.   s-Pop       p-Pop       d-Pop       
    1          C           0.032849        3.9672     1.12685     2.84030
    2          C           0.527989        3.4720     1.10293     2.36908
    3          O          -0.503933        6.5039     1.85205     4.65189
    4          C          -0.150805        4.1508     1.10218     3.04862
    5          C          -0.072588        4.0726     1.10666     2.96593
    6          C          -0.122853        4.1229     1.10808     3.01478
    7          C          -0.121145        4.1211     1.10804     3.01311
    8          C          -0.073355        4.0734     1.10629     2.96706
    9          C          -0.151869        4.1519     1.10197     3.04990
   10          C           0.575428        3.4246     1.09368     2.33089
   11          O          -0.527534        6.5275     1.84993     4.67761
   12          C          -0.200560        4.2006     1.13129     3.06927
   13         Br          -0.023125        7.0231     1.98692     5.02730     0.00891
   14          H           0.178464        0.8215     0.82154
   15          H           0.176453        0.8235     0.82355
   16          H           0.176207        0.8238     0.82379
   17          H           0.178198        0.8218     0.82180
   18          C          -0.474875        4.4749     1.08555     3.38933
   19          H           0.196384        0.8036     0.80362
   20          H           0.196523        0.8035     0.80348
   21          H           0.184146        0.8159     0.81585


          CARTESIAN COORDINATES 

    NO.       ATOM               X         Y         Z

     1         C                 -2.8220  -25.8160   13.2910
     2         C                 -4.2690  -25.6770   13.5440
     3         O                 -4.6660  -25.1990   14.5890
     4         C                 -5.2300  -26.1240   12.5120
     5         C                 -6.5710  -25.7690   12.5750
     6         C                 -7.4450  -26.2070   11.5910
     7         C                 -6.9910  -26.9920   10.5490
     8         C                 -5.6540  -27.3550   10.4730
     9         C                 -4.7670  -26.9240   11.4500
    10         C                 -3.3350  -27.2900   11.4020
    11         O                 -2.9480  -28.1630   10.6510
    12         C                 -2.3790  -26.5760   12.2740
    13        Br                 -0.5210  -26.7340   11.9620
    14         H                 -6.9320  -25.1550   13.3880
    15         H                 -8.4880  -25.9300   11.6390
    16         H                 -7.6810  -27.3260    9.7890
    17         H                 -5.3040  -27.9690    9.6560
    18         C                 -1.8340  -25.0990   14.1750
    19         H                 -1.2430  -25.8290   14.7260
    20         H                 -1.1750  -24.4860   13.5600
    21         H                 -2.3720  -24.4620   14.8770


          ATOMIC ORBITAL ELECTRON POPULATIONS

   1.12685   0.99115   0.91128   0.93786   1.10293   0.89021   0.66847   0.81040
   1.85205   1.83219   1.43111   1.38859   1.10218   1.00627   1.03835   1.00400
   1.10666   0.96043   0.97984   1.02566   1.10808   1.07964   0.96812   0.96702
   1.10804   1.01585   0.97079   1.02647   1.10629   0.97552   0.97616   1.01538
   1.10197   0.99373   1.04226   1.01391   1.09368   0.87333   0.73361   0.72394
   1.84993   1.82809   1.39699   1.45253   1.13129   0.92367   1.08668   1.05892
   1.98692   1.09752   1.97064   1.95913   0.00336   0.00202   0.00129   0.00065
   0.00161   0.82154   0.82355   0.82379   0.82180   1.08555   1.10938   1.15160
   1.12834   0.80362   0.80348   0.81585

           MULLIKEN POPULATION ANALYSIS



        MULLIKEN POPULATIONS AND CHARGES

      NO.  ATOM   POPULATION      CHARGE
        1    C     3.989681      0.010319
        2    C     3.444192      0.555808
        3    O     6.526273     -0.526273
        4    C     4.166108     -0.166108
        5    C     4.116299     -0.116299
        6    C     4.179186     -0.179186
        7    C     4.177354     -0.177354
        8    C     4.117142     -0.117142
        9    C     4.168814     -0.168814
       10    C     3.399177      0.600823
       11    O     6.553065     -0.553065
       12    C     4.380402     -0.380402
       13   Br     6.810089      0.189911
       14    H     0.764737      0.235263
       15    H     0.767078      0.232922
       16    H     0.767292      0.232708
       17    H     0.764972      0.235028
       18    C     4.627675     -0.627675
       19    H     0.757129      0.242871
       20    H     0.760248      0.239752
       21    H     0.763090      0.236910



 TOTAL CPU TIME:             0.16 SECONDS

 == MOPAC DONE ==
 *******************************************************************************
 ** Site#:  958            For non-commercial use only         Version 9.015L **
 *******************************************************************************
 ** Cite this work as: MOPAC2009, James J. P. Stewart, Stewart Computational  **
 ** Chemistry, Version 9.015L web: HTTP://OpenMOPAC.net                       **
 *******************************************************************************
 **                                                                           **
 **                                MOPAC2009                                  **
 **                                                                           **
 *******************************************************************************

                            PM6 CALCULATION RESULTS


 *******************************************************************************
 *  CALCULATION DONE:                                Wed Sep  7 08:45:12 2011  *
 *  PM6      - The PM6 Hamiltonian to be used
 *  GEO-OK   - OVERRIDE INTERATOMIC DISTANCE CHECK
 *  MOZYME   - USE LOCALIZED M.O.s IN SOLVING THE SCF EQUATIONS
 *
 *
 *
 *                 CHARGE ON SYSTEM =     0
 *
 *
 *
 *  EPS= 78.400
 *  RSOLV=  1.300
 *  OLDGEO   - PREVIOUS GEOMETRY TO BE USED
 *  T=       - A TIME OF 172800.0 SECONDS REQUESTED
 *  DUMP=N   - RESTART FILE WRITTEN EVERY  4320.000 SECONDS
 *  RELSCF   - DEFAULT SCF CRITERION MULTIPLIED BY   0.100    
 *             (DEFAULT SCFCRT= 0.00010)
 *  THERMO   - THERMODYNAMIC QUANTITIES TO BE CALCULATED
 *******************************************************************************
 PM6 DUMP=4320 MOZYME RELSCF=0.1 THERMO EPS=78.40 RSOLV=1.30 +
 OLDGEO GEO-OK CHARGE=0
 SJ000001677-2_T001S001I001C01_001: Free energy calculation

   ATOM           CHEMICAL             X               Y              Z
  NUMBER           SYMBOL         (ANGSTROMS)     (ANGSTROMS)    (ANGSTROMS)
 
     1       C(     1  C     )   -2.8220000  *  -25.816000  *   13.291000  *
     2       C(     2  C     )   -4.2690000  *  -25.677000  *   13.544000  *
     3       O(     3  O     )   -4.6660000  *  -25.199000  *   14.589000  *
     4       C(     4  C     )   -5.2300000  *  -26.124000  *   12.512000  *
     5       C(     5  C     )   -6.5710000  *  -25.769000  *   12.575000  *
     6       C(     6  C     )   -7.4450000  *  -26.207000  *   11.591000  *
     7       C(     7  C     )   -6.9910000  *  -26.992000  *   10.549000  *
     8       C(     8  C     )   -5.6540000  *  -27.355000  *   10.473000  *
     9       C(     9  C     )   -4.7670000  *  -26.924000  *   11.450000  *
    10       C(    10  C     )   -3.3350000  *  -27.290000  *   11.402000  *
    11       O(    11  O     )   -2.9480000  *  -28.163000  *   10.651000  *
    12       C(    12  C     )   -2.3790000  *  -26.576000  *   12.274000  *
    13      Br(    13 Br     )   -0.5210000  *  -26.734000  *   11.962000  *
    14       H(    14  C     )   -6.9320000  *  -25.155000  *   13.388000  *
    15       H(    15  C     )   -8.4880000  *  -25.930000  *   11.639000  *
    16       H(    16  C     )   -7.6810000  *  -27.326000  *    9.789000  *
    17       H(    17  C     )   -5.3040000  *  -27.969000  *    9.656000  *
    18       C(    18  C     )   -1.8340000  *  -25.099000  *   14.175000  *
    19       H(    19  C     )   -1.2430000  *  -25.829000  *   14.726000  *
    20       H(    20  C     )   -1.1750000  *  -24.486000  *   13.560000  *
    21       H(    21  C     )   -2.3720000  *  -24.462000  *   14.877000  *
 


          CARTESIAN COORDINATES 

    NO.       ATOM         X         Y         Z

     1         C       -2.8220  -25.8160   13.2910
     2         C       -4.2690  -25.6770   13.5440
     3         O       -4.6660  -25.1990   14.5890
     4         C       -5.2300  -26.1240   12.5120
     5         C       -6.5710  -25.7690   12.5750
     6         C       -7.4450  -26.2070   11.5910
     7         C       -6.9910  -26.9920   10.5490
     8         C       -5.6540  -27.3550   10.4730
     9         C       -4.7670  -26.9240   11.4500
    10         C       -3.3350  -27.2900   11.4020
    11         O       -2.9480  -28.1630   10.6510
    12         C       -2.3790  -26.5760   12.2740
    13        Br       -0.5210  -26.7340   11.9620
    14         H       -6.9320  -25.1550   13.3880
    15         H       -8.4880  -25.9300   11.6390
    16         H       -7.6810  -27.3260    9.7890
    17         H       -5.3040  -27.9690    9.6560
    18         C       -1.8340  -25.0990   14.1750
    19         H       -1.2430  -25.8290   14.7260
    20         H       -1.1750  -24.4860   13.5600
    21         H       -2.3720  -24.4620   14.8770

 General Reference for PM6:
 "Optimization of Parameters for Semiempirical Methods V: Modification of NDDO Approximations
 and Application to 70 Elements", J. J. P. Stewart, J. Mol. Mod., 13, 1173-1213 (2007)
 URL: http://www.springerlink.com/content/ar33482301010477/fulltext.pdf

           Empirical Formula: C11 H7 O2 Br  =    21 atoms



      MOLECULAR POINT GROUP   :   C1  
 
   NUMBER AND TYPES OF BONDS IDENTIFIED
 
         SIGMA BONDS               22
         LONE PAIRS                 7
         NORMAL PI BONDS            3
         AROMATIC RING PI BONDS     3
 
  SCF CRITERION =    0.1000E-02


          HEAT OF FORMATION =     -29.459321 KCALS/MOLE


          INTERNAL COORDINATE DERIVATIVES

   NUMBER  ATOM       BOND         ANGLE      DIHEDRAL

     1       C
     2       C     38.732411
     3       O     -7.957104    -3.439769
     4       C    -24.767908   -13.390053    -1.586342
     5       C     -4.487438   -10.237500    -0.132336
     6       C      8.617341     5.536579     0.671802
     7       C      3.724675   -14.236451    -0.306989
     8       C    -12.963194     3.585049    -2.665863
     9       C     -8.340013     9.805311    -0.524747
    10       C     13.788461     2.877038     3.420197
    11       O     -1.013246   -12.036815    -2.977352
    12       C     12.405661    16.941224     4.991123
    13      Br      7.682602     9.316460     5.004164
    14       H     -4.534252    -9.194596    -3.287132
    15       H      1.482654    11.014031     3.539756
    16       H     -4.820089    -8.972611    -1.982047
    17       H    -10.657230     0.027893    -2.138492
    18       C     -4.897292    10.132571     0.139194
    19       H      5.729985     8.696382     2.299754
    20       H    -27.684639    20.101413     3.631976
    21       H      5.750760    -6.684324     4.491311


          GRADIENT NORM =  79.93973



 ** GRADIENT IS TOO LARGE TO ALLOW FORCE MATRIX TO BE CALCULATED, (LIMIT=10) **



 EITHER ADD 'LET' OR REDUCE GRADIENT
 USING 'TS' OR OTHER GEOMETRY OPTIMIZER



 TOTAL CPU TIME:             0.38 SECONDS

 == MOPAC DONE ==
