 *******************************************************************************
 ** Site#:  958            For non-commercial use only         Version 9.015L **
 *******************************************************************************
 ** Cite this work as: MOPAC2009, James J. P. Stewart, Stewart Computational  **
 ** Chemistry, Version 9.015L web: HTTP://OpenMOPAC.net                       **
 *******************************************************************************
 **                                                                           **
 **                                MOPAC2009                                  **
 **                                                                           **
 *******************************************************************************

                            PM6 CALCULATION RESULTS


 *******************************************************************************
 *  CALCULATION DONE:                                Thu Sep  8 12:28:15 2011  *
 *  PM6      - The PM6 Hamiltonian to be used
 *  PDBOUT   - PRINT GEOMETY IN PDB FORMAT
 *  MOZYME   - USE LOCALIZED M.O.s IN SOLVING THE SCF EQUATIONS
 *
 *
 *
 *                 CHARGE ON SYSTEM =     0
 *
 *
 *
 *  EPS= 78.400
 *  RSOLV=  1.300
 *  LET      - OVERRIDE SOME SAFETY CHECKS
 *  XYZ      - CARTESIAN COORDINATE SYSTEM TO BE USED
 *  LBFGS    - USE THE LBFGS GEOMETRY OPTIMIZER
 *  1SCF     - DO 1 SCF AND THEN STOP 
 *  T=       - A TIME OF  0.3E+08 SECONDS REQUESTED
 *  DUMP=N   - RESTART FILE WRITTEN EVERY  4320.000 SECONDS
 *  DDMIN=   - MINIMUM TRUST RADIUS  0.000 ANG/RAD
 *  GNORM=   - EXIT WHEN GRADIENT NORM DROPS BELOW .150    
 *  RELSCF   - DEFAULT SCF CRITERION MULTIPLIED BY   0.100    
 *             (DEFAULT SCFCRT= 0.00010)
 *  MULLIK   - THE MULLIKEN ANALYSIS TO BE PERFORMED
 *******************************************************************************
 PM6 T=31377157 DUMP=4320 XYZ EPS=78.40 RSOLV=1.30 MULLIK LBFGS MOZYME PDBOUT +
 CHARGE=0 RELSCF=0.1 LET DDMIN=0.0 GNORM=0.15 1SCF
 SJ000002349-1_T001S001I001C07_003: Geometry optimization step

   ATOM   CHEMICAL          X               Y              Z
  NUMBER   SYMBOL      (ANGSTROMS)     (ANGSTROMS)    (ANGSTROMS)
 
     1       C         -6.3780000  *  -20.856000  *   10.793000  *
     2       C         -4.9630000  *  -21.432000  *   10.821000  *
     3       C         -4.9940000  *  -22.872000  *   11.276000  *
     4       C         -6.0560000  *  -23.647000  *   10.982000  *
     5       C         -6.0850000  *  -25.086000  *   11.432000  *
     6       C         -4.6970000  *  -25.566000  *   11.773000  *
     7       C         -3.7180000  *  -24.674000  *   12.019000  *
     8       C         -2.3260000  *  -25.156000  *   12.354000  *
     9       C         -2.0370000  *  -26.474000  *   11.636000  *
    10       C         -3.0720000  *  -27.473000  *   12.156000  *
    11       C         -4.4450000  *  -26.949000  *   11.834000  *
    12       O         -5.3490000  *  -27.731000  *   11.622000  *
    13       O         -3.9550000  *  -23.353000  *   11.976000  *
    14       C         -7.1450000  *  -23.133000  *   10.255000  *
    15       O         -8.0880000  *  -23.855000  *   10.001000  *
    16       C         -7.1600000  *  -21.704000  *    9.787000  *
    17       H         -4.5310000  *  -21.379000  *    9.821000  *
    18       H         -4.3500000  *  -20.850000  *   11.509000  *
    19       H         -6.7220000  *  -25.174000  *   12.311000  *
    20       H         -1.6000000  *  -24.405000  *   12.039000  *
    21       H         -2.2460000  *  -25.305000  *   13.431000  *
    22       H         -2.9250000  *  -28.439000  *   11.673000  *
    23       H         -2.9660000  *  -27.583000  *   13.236000  *
    24       H         -8.1900000  *  -21.347000  *    9.729000  *
    25       H         -6.6930000  *  -21.633000  *    8.806000  *
    26       C         -6.6460000  *  -25.940000  *   10.323000  *
    27       C         -7.8500000  *  -26.607000  *   10.504000  *
    28       C         -8.3650000  *  -27.393000  *    9.485000  *
    29       C         -7.6770000  *  -27.509000  *    8.287000  *
    30       H         -9.3020000  *  -27.913000  *    9.623000  *
    31       C         -6.4740000  *  -26.841000  *    8.111000  *
    32       C         -5.9650000  *  -26.053000  *    9.127000  *
    33       H         -5.9370000  *  -26.932000  *    7.178000  *
    34       H         -5.0290000  *  -25.533000  *    8.988000  *
    35       O         -8.5220000  *  -26.490000  *   11.680000  *
    36       H         -8.8860000  *  -25.608000  *   11.838000  *
    37       O         -8.1810000  *  -28.279000  *    7.286000  *
    38       H         -7.5800000  *  -28.975000  *    6.986000  *
    39       C         -7.0170000  *  -20.961000  *   12.179000  *
    40       H         -7.9190000  *  -21.570000  *   12.118000  *
    41       H         -6.3130000  *  -21.424000  *   12.870000  *
    42       H         -7.2750000  *  -19.964000  *   12.538000  *
    43       C         -6.3440000  *  -19.395000  *   10.337000  *
    44       H         -5.9990000  *  -18.768000  *   11.159000  *
    45       H         -5.6650000  *  -19.294000  *    9.491000  *
    46       H         -7.3460000  *  -19.084000  *   10.040000  *
    47       C         -2.1920000  *  -26.294000  *   10.124000  *
    48       H         -2.9910000  *  -26.943000  *    9.762000  *
    49       H         -2.4410000  *  -25.256000  *    9.904000  *
    50       H         -1.2580000  *  -26.556000  *    9.629000  *
    51       C         -0.6240000  *  -26.956000  *   11.967000  *
    52       H          0.0330000  *  -26.766000  *   11.118000  *
    53       H         -0.2520000  *  -26.419000  *   12.840000  *
    54       H         -0.6440000  *  -28.025000  *   12.179000  *
 


          CARTESIAN COORDINATES 

    NO.       ATOM         X         Y         Z

     1         C       -6.3780  -20.8560   10.7930
     2         C       -4.9630  -21.4320   10.8210
     3         C       -4.9940  -22.8720   11.2760
     4         C       -6.0560  -23.6470   10.9820
     5         C       -6.0850  -25.0860   11.4320
     6         C       -4.6970  -25.5660   11.7730
     7         C       -3.7180  -24.6740   12.0190
     8         C       -2.3260  -25.1560   12.3540
     9         C       -2.0370  -26.4740   11.6360
    10         C       -3.0720  -27.4730   12.1560
    11         C       -4.4450  -26.9490   11.8340
    12         O       -5.3490  -27.7310   11.6220
    13         O       -3.9550  -23.3530   11.9760
    14         C       -7.1450  -23.1330   10.2550
    15         O       -8.0880  -23.8550   10.0010
    16         C       -7.1600  -21.7040    9.7870
    17         H       -4.5310  -21.3790    9.8210
    18         H       -4.3500  -20.8500   11.5090
    19         H       -6.7220  -25.1740   12.3110
    20         H       -1.6000  -24.4050   12.0390
    21         H       -2.2460  -25.3050   13.4310
    22         H       -2.9250  -28.4390   11.6730
    23         H       -2.9660  -27.5830   13.2360
    24         H       -8.1900  -21.3470    9.7290
    25         H       -6.6930  -21.6330    8.8060
    26         C       -6.6460  -25.9400   10.3230
    27         C       -7.8500  -26.6070   10.5040
    28         C       -8.3650  -27.3930    9.4850
    29         C       -7.6770  -27.5090    8.2870
    30         H       -9.3020  -27.9130    9.6230
    31         C       -6.4740  -26.8410    8.1110
    32         C       -5.9650  -26.0530    9.1270
    33         H       -5.9370  -26.9320    7.1780
    34         H       -5.0290  -25.5330    8.9880
    35         O       -8.5220  -26.4900   11.6800
    36         H       -8.8860  -25.6080   11.8380
    37         O       -8.1810  -28.2790    7.2860
    38         H       -7.5800  -28.9750    6.9860
    39         C       -7.0170  -20.9610   12.1790
    40         H       -7.9190  -21.5700   12.1180
    41         H       -6.3130  -21.4240   12.8700
    42         H       -7.2750  -19.9640   12.5380
    43         C       -6.3440  -19.3950   10.3370
    44         H       -5.9990  -18.7680   11.1590
    45         H       -5.6650  -19.2940    9.4910
    46         H       -7.3460  -19.0840   10.0400
    47         C       -2.1920  -26.2940   10.1240
    48         H       -2.9910  -26.9430    9.7620
    49         H       -2.4410  -25.2560    9.9040
    50         H       -1.2580  -26.5560    9.6290
    51         C       -0.6240  -26.9560   11.9670
    52         H        0.0330  -26.7660   11.1180
    53         H       -0.2520  -26.4190   12.8400
    54         H       -0.6440  -28.0250   12.1790

 General Reference for PM6:
 "Optimization of Parameters for Semiempirical Methods V: Modification of NDDO Approximations
 and Application to 70 Elements", J. J. P. Stewart, J. Mol. Mod., 13, 1173-1213 (2007)
 URL: http://www.springerlink.com/content/ar33482301010477/fulltext.pdf

           Empirical Formula: C23 H26 O5  =    54 atoms



      MOLECULAR POINT GROUP   :   C1  
 
   NUMBER AND TYPES OF BONDS IDENTIFIED
 
         SIGMA BONDS               57
         LONE PAIRS                10
         NORMAL PI BONDS            6
         AROMATIC RING PI BONDS     1
 

                  Ramachandran Angles
              Residue    phi    psi  omega

  
  SCF CRITERION =    0.1000E-02

 -------------------------------------------------------------------------------
 PM6 T=31377157 DUMP=4320 XYZ EPS=78.40 RSOLV=1.30 MULLIK LBFGS MOZYME PDBOUT +
 CHARGE=0 RELSCF=0.1 LET DDMIN=0.0 GNORM=0.15 1SCF
 SJ000002349-1_T001S001I001C07_003: Geometry optimization step



     1SCF WAS SPECIFIED, SO BFGS WAS NOT USED                 
     SCF FIELD WAS ACHIEVED                                   


                               PM6     CALCULATION
                                                       MOPAC2009 (Version: 9.015L)
                                                       Thu Sep  8 12:28:15 2011




          FINAL HEAT OF FORMATION =       -181.99111 KCAL =    -761.45080 KJ
          VAN DER WAALS AREA      =        356.72 SQUARE ANGSTROMS


          TOTAL ENERGY            =      -4642.11893 EV
          ELECTRONIC ENERGY       =     -41995.75379 EV
          CORE-CORE REPULSION     =      37353.63486 EV
          DIELECTRIC ENERGY       =         -1.41133 EV
          COSMO AREA              =        356.72 SQUARE ANGSTROMS
          COSMO VOLUME            =        458.75 CUBIC ANGSTROMS

          NO. OF FILLED LEVELS    =         74
          MOLECULAR WEIGHT        =        382.455

          MOLECULAR DIMENSIONS (Angstroms)

            Atom       Atom       Distance
            H    44    H    38    11.13985
            H    53    H    24     9.63680
            H    36    H    50     5.34336


          SCF CALCULATIONS        =          2
          COMPUTATION TIME        =          0.532 SECONDS




   ATOM           CHEMICAL             X               Y              Z
  NUMBER           SYMBOL         (ANGSTROMS)     (ANGSTROMS)    (ANGSTROMS)
 
     1       C(     1  C     )   -6.3780000  *  -20.856000  *   10.793000  *
     2       C(     2  C     )   -4.9630000  *  -21.432000  *   10.821000  *
     3       C(     3  C     )   -4.9940000  *  -22.872000  *   11.276000  *
     4       C(     4  C     )   -6.0560000  *  -23.647000  *   10.982000  *
     5       C(     5  C     )   -6.0850000  *  -25.086000  *   11.432000  *
     6       C(     6  C     )   -4.6970000  *  -25.566000  *   11.773000  *
     7       C(     7  C     )   -3.7180000  *  -24.674000  *   12.019000  *
     8       C(     8  C     )   -2.3260000  *  -25.156000  *   12.354000  *
     9       C(     9  C     )   -2.0370000  *  -26.474000  *   11.636000  *
    10       C(    10  C     )   -3.0720000  *  -27.473000  *   12.156000  *
    11       C(    11  C     )   -4.4450000  *  -26.949000  *   11.834000  *
    12       O(    12  O     )   -5.3490000  *  -27.731000  *   11.622000  *
    13       O(    13  O     )   -3.9550000  *  -23.353000  *   11.976000  *
    14       C(    14  C     )   -7.1450000  *  -23.133000  *   10.255000  *
    15       O(    15  O     )   -8.0880000  *  -23.855000  *   10.001000  *
    16       C(    16  C     )   -7.1600000  *  -21.704000  *    9.787000  *
    17       H(    17  C     )   -4.5310000  *  -21.379000  *    9.821000  *
    18       H(    18  C     )   -4.3500000  *  -20.850000  *   11.509000  *
    19       H(    19  C     )   -6.7220000  *  -25.174000  *   12.311000  *
    20       H(    20  C     )   -1.6000000  *  -24.405000  *   12.039000  *
    21       H(    21  C     )   -2.2460000  *  -25.305000  *   13.431000  *
    22       H(    22  C     )   -2.9250000  *  -28.439000  *   11.673000  *
    23       H(    23  C     )   -2.9660000  *  -27.583000  *   13.236000  *
    24       H(    24  C     )   -8.1900000  *  -21.347000  *    9.729000  *
    25       H(    25  C     )   -6.6930000  *  -21.633000  *    8.806000  *
    26       C(    26  C     )   -6.6460000  *  -25.940000  *   10.323000  *
    27       C(    27  C     )   -7.8500000  *  -26.607000  *   10.504000  *
    28       C(    28  C     )   -8.3650000  *  -27.393000  *    9.485000  *
    29       C(    29  C     )   -7.6770000  *  -27.509000  *    8.287000  *
    30       H(    30  C     )   -9.3020000  *  -27.913000  *    9.623000  *
    31       C(    31  C     )   -6.4740000  *  -26.841000  *    8.111000  *
    32       C(    32  C     )   -5.9650000  *  -26.053000  *    9.127000  *
    33       H(    33  C     )   -5.9370000  *  -26.932000  *    7.178000  *
    34       H(    34  C     )   -5.0290000  *  -25.533000  *    8.988000  *
    35       O(    35  O     )   -8.5220000  *  -26.490000  *   11.680000  *
    36       H(    36  O     )   -8.8860000  *  -25.608000  *   11.838000  *
    37       O(    37  O     )   -8.1810000  *  -28.279000  *    7.286000  *
    38       H(    38  O     )   -7.5800000  *  -28.975000  *    6.986000  *
    39       C(    39  C     )   -7.0170000  *  -20.961000  *   12.179000  *
    40       H(    40  C     )   -7.9190000  *  -21.570000  *   12.118000  *
    41       H(    41  C     )   -6.3130000  *  -21.424000  *   12.870000  *
    42       H(    42  C     )   -7.2750000  *  -19.964000  *   12.538000  *
    43       C(    43  C     )   -6.3440000  *  -19.395000  *   10.337000  *
    44       H(    44  C     )   -5.9990000  *  -18.768000  *   11.159000  *
    45       H(    45  C     )   -5.6650000  *  -19.294000  *    9.491000  *
    46       H(    46  C     )   -7.3460000  *  -19.084000  *   10.040000  *
    47       C(    47  C     )   -2.1920000  *  -26.294000  *   10.124000  *
    48       H(    48  C     )   -2.9910000  *  -26.943000  *    9.762000  *
    49       H(    49  C     )   -2.4410000  *  -25.256000  *    9.904000  *
    50       H(    50  C     )   -1.2580000  *  -26.556000  *    9.629000  *
    51       C(    51  C     )   -0.6240000  *  -26.956000  *   11.967000  *
    52       H(    52  C     )    0.0330000  *  -26.766000  *   11.118000  *
    53       H(    53  C     )   -0.2520000  *  -26.419000  *   12.840000  *
    54       H(    54  C     )   -0.6440000  *  -28.025000  *   12.179000  *

           Empirical Formula: C23 H26 O5  =    54 atoms



              NET ATOMIC CHARGES AND DIPOLE CONTRIBUTIONS

  ATOM NO.   TYPE          CHARGE      No. of ELECS.   s-Pop       p-Pop       
    1          C           0.288528        3.7115     1.06284     2.64864
    2          C          -0.423089        4.4231     1.10699     3.31610
    3          C           0.439264        3.5607     1.10018     2.46056
    4          C          -0.489515        4.4895     1.11057     3.37894
    5          C           0.122042        3.8780     1.05100     2.82696
    6          C          -0.484381        4.4844     1.11074     3.37364
    7          C           0.434732        3.5653     1.10041     2.46486
    8          C          -0.423117        4.4231     1.10787     3.31524
    9          C           0.289379        3.7106     1.06264     2.64798
   10          C          -0.534507        4.5345     1.11885     3.41565
   11          C           0.664297        3.3357     1.07332     2.26239
   12          O          -0.618430        6.6184     1.84490     4.77353
   13          O          -0.344651        6.3447     1.78234     4.56231
   14          C           0.665009        3.3350     1.07332     2.26167
   15          O          -0.624297        6.6243     1.84487     4.77942
   16          C          -0.533517        4.5335     1.11809     3.41542
   17          H           0.206923        0.7931     0.79308
   18          H           0.198602        0.8014     0.80140
   19          H           0.142766        0.8572     0.85723
   20          H           0.199265        0.8007     0.80073
   21          H           0.206003        0.7940     0.79400
   22          H           0.200745        0.7993     0.79926
   23          H           0.207343        0.7927     0.79266
   24          H           0.200914        0.7991     0.79909
   25          H           0.206150        0.7938     0.79385
   26          C          -0.141523        4.1415     1.09576     3.04577
   27          C           0.391600        3.6084     1.05756     2.55084
   28          C          -0.434735        4.4347     1.10594     3.32879
   29          C           0.372780        3.6272     1.05671     2.57051
   30          H           0.198699        0.8013     0.80130
   31          C          -0.377470        4.3775     1.10717     3.27030
   32          C          -0.017191        4.0172     1.09538     2.92181
   33          H           0.184553        0.8154     0.81545
   34          H           0.155513        0.8445     0.84449
   35          O          -0.566674        6.5667     1.77346     4.79321
   36          H           0.371670        0.6283     0.62833
   37          O          -0.562019        6.5620     1.77527     4.78675
   38          H           0.372618        0.6274     0.62738
   39          C          -0.559054        4.5591     1.09707     3.46198
   40          H           0.170376        0.8296     0.82962
   41          H           0.170591        0.8294     0.82941
   42          H           0.175840        0.8242     0.82416
   43          C          -0.543958        4.5440     1.09513     3.44883
   44          H           0.172398        0.8276     0.82760
   45          H           0.169856        0.8301     0.83014
   46          H           0.173121        0.8269     0.82688
   47          C          -0.559106        4.5591     1.09824     3.46087
   48          H           0.169609        0.8304     0.83039
   49          H           0.169828        0.8302     0.83017
   50          H           0.176011        0.8240     0.82399
   51          C          -0.549725        4.5497     1.09625     3.45347
   52          H           0.174177        0.8258     0.82582
   53          H           0.172082        0.8279     0.82792
   54          H           0.173675        0.8263     0.82632


          CARTESIAN COORDINATES 

    NO.       ATOM               X         Y         Z

     1         C                 -6.3780  -20.8560   10.7930
     2         C                 -4.9630  -21.4320   10.8210
     3         C                 -4.9940  -22.8720   11.2760
     4         C                 -6.0560  -23.6470   10.9820
     5         C                 -6.0850  -25.0860   11.4320
     6         C                 -4.6970  -25.5660   11.7730
     7         C                 -3.7180  -24.6740   12.0190
     8         C                 -2.3260  -25.1560   12.3540
     9         C                 -2.0370  -26.4740   11.6360
    10         C                 -3.0720  -27.4730   12.1560
    11         C                 -4.4450  -26.9490   11.8340
    12         O                 -5.3490  -27.7310   11.6220
    13         O                 -3.9550  -23.3530   11.9760
    14         C                 -7.1450  -23.1330   10.2550
    15         O                 -8.0880  -23.8550   10.0010
    16         C                 -7.1600  -21.7040    9.7870
    17         H                 -4.5310  -21.3790    9.8210
    18         H                 -4.3500  -20.8500   11.5090
    19         H                 -6.7220  -25.1740   12.3110
    20         H                 -1.6000  -24.4050   12.0390
    21         H                 -2.2460  -25.3050   13.4310
    22         H                 -2.9250  -28.4390   11.6730
    23         H                 -2.9660  -27.5830   13.2360
    24         H                 -8.1900  -21.3470    9.7290
    25         H                 -6.6930  -21.6330    8.8060
    26         C                 -6.6460  -25.9400   10.3230
    27         C                 -7.8500  -26.6070   10.5040
    28         C                 -8.3650  -27.3930    9.4850
    29         C                 -7.6770  -27.5090    8.2870
    30         H                 -9.3020  -27.9130    9.6230
    31         C                 -6.4740  -26.8410    8.1110
    32         C                 -5.9650  -26.0530    9.1270
    33         H                 -5.9370  -26.9320    7.1780
    34         H                 -5.0290  -25.5330    8.9880
    35         O                 -8.5220  -26.4900   11.6800
    36         H                 -8.8860  -25.6080   11.8380
    37         O                 -8.1810  -28.2790    7.2860
    38         H                 -7.5800  -28.9750    6.9860
    39         C                 -7.0170  -20.9610   12.1790
    40         H                 -7.9190  -21.5700   12.1180
    41         H                 -6.3130  -21.4240   12.8700
    42         H                 -7.2750  -19.9640   12.5380
    43         C                 -6.3440  -19.3950   10.3370
    44         H                 -5.9990  -18.7680   11.1590
    45         H                 -5.6650  -19.2940    9.4910
    46         H                 -7.3460  -19.0840   10.0400
    47         C                 -2.1920  -26.2940   10.1240
    48         H                 -2.9910  -26.9430    9.7620
    49         H                 -2.4410  -25.2560    9.9040
    50         H                 -1.2580  -26.5560    9.6290
    51         C                 -0.6240  -26.9560   11.9670
    52         H                  0.0330  -26.7660   11.1180
    53         H                 -0.2520  -26.4190   12.8400
    54         H                 -0.6440  -28.0250   12.1790


          ATOMIC ORBITAL ELECTRON POPULATIONS

   1.06284   0.85391   0.90016   0.89457   1.10699   1.13453   0.99648   1.18509
   1.10018   0.78712   0.90933   0.76411   1.11057   1.08474   1.06916   1.22505
   1.05100   0.93611   0.87649   1.01435   1.11074   1.06112   1.05788   1.25464
   1.10041   0.92833   0.74404   0.79249   1.10787   1.01898   1.12035   1.17592
   1.06264   0.90017   0.85362   0.89420   1.11885   1.06657   1.15454   1.19454
   1.07332   0.82049   0.83410   0.60779   1.84490   1.57189   1.67493   1.52672
   1.78234   1.55114   1.36402   1.64715   1.07332   0.77368   0.82507   0.66293
   1.84487   1.49736   1.67461   1.60745   1.11809   1.19142   1.07014   1.15386
   0.79308   0.80140   0.85723   0.80073   0.79400   0.79926   0.79266   0.79909
   0.79385   1.09576   1.00702   1.03618   1.00257   1.05756   0.87418   0.90407
   0.77259   1.10594   1.14836   1.17267   1.00776   1.05671   0.89886   0.85642
   0.81523   0.80130   1.10717   1.06574   1.09920   1.10536   1.09538   1.02616
   0.95243   0.94323   0.81545   0.84449   1.77346   1.76970   1.52736   1.49615
   0.62833   1.77527   1.61959   1.56228   1.60487   0.62738   1.09707   1.17199
   1.19907   1.09092   0.82962   0.82941   0.82416   1.09513   1.19417   1.07227
   1.18239   0.82760   0.83014   0.82688   1.09824   1.19755   1.19047   1.07285
   0.83039   0.83017   0.82399   1.09625   1.07919   1.18290   1.19139   0.82582
   0.82792   0.82632

           MULLIKEN POPULATION ANALYSIS



        MULLIKEN POPULATIONS AND CHARGES

      NO.  ATOM   POPULATION      CHARGE
        1    C     3.682249      0.317751
        2    C     4.542617     -0.542617
        3    C     3.537431      0.462569
        4    C     4.539446     -0.539446
        5    C     3.877067      0.122933
        6    C     4.534080     -0.534080
        7    C     3.542206      0.457794
        8    C     4.542509     -0.542509
        9    C     3.681148      0.318852
       10    C     4.666024     -0.666024
       11    C     3.282614      0.717386
       12    O     6.643162     -0.643162
       13    O     6.391732     -0.391732
       14    C     3.282074      0.717926
       15    O     6.649305     -0.649305
       16    C     4.664736     -0.664736
       17    H     0.736164      0.263836
       18    H     0.744169      0.255831
       19    H     0.810478      0.189522
       20    H     0.743539      0.256461
       21    H     0.737050      0.262950
       22    H     0.742272      0.257728
       23    H     0.736257      0.263743
       24    H     0.742311      0.257689
       25    H     0.737435      0.262565
       26    C     4.157541     -0.157541
       27    C     3.582690      0.417310
       28    C     4.507142     -0.507142
       29    C     3.604044      0.395956
       30    H     0.739050      0.260950
       31    C     4.447858     -0.447858
       32    C     4.050508     -0.050508
       33    H     0.757095      0.242905
       34    H     0.794304      0.205696
       35    O     6.618320     -0.618320
       36    H     0.593751      0.406249
       37    O     6.613563     -0.613563
       38    H     0.592681      0.407319
       39    C     4.705624     -0.705624
       40    H     0.782065      0.217935
       41    H     0.781693      0.218307
       42    H     0.775147      0.224853
       43    C     4.691009     -0.691009
       44    H     0.779240      0.220760
       45    H     0.781908      0.218092
       46    H     0.778444      0.221556
       47    C     4.704938     -0.704938
       48    H     0.783281      0.216719
       49    H     0.782768      0.217232
       50    H     0.775149      0.224851
       51    C     4.696694     -0.696694
       52    H     0.777695      0.222305
       53    H     0.779798      0.220202
       54    H     0.777924      0.222076



 TOTAL CPU TIME:             0.56 SECONDS

 == MOPAC DONE ==
 *******************************************************************************
 ** Site#:  958            For non-commercial use only         Version 9.015L **
 *******************************************************************************
 ** Cite this work as: MOPAC2009, James J. P. Stewart, Stewart Computational  **
 ** Chemistry, Version 9.015L web: HTTP://OpenMOPAC.net                       **
 *******************************************************************************
 **                                                                           **
 **                                MOPAC2009                                  **
 **                                                                           **
 *******************************************************************************

                            PM6 CALCULATION RESULTS


 *******************************************************************************
 *  CALCULATION DONE:                                Thu Sep  8 12:28:15 2011  *
 *  PM6      - The PM6 Hamiltonian to be used
 *  GEO-OK   - OVERRIDE INTERATOMIC DISTANCE CHECK
 *  MOZYME   - USE LOCALIZED M.O.s IN SOLVING THE SCF EQUATIONS
 *
 *
 *
 *                 CHARGE ON SYSTEM =     0
 *
 *
 *
 *  EPS= 78.400
 *  RSOLV=  1.300
 *  OLDGEO   - PREVIOUS GEOMETRY TO BE USED
 *  T=       - A TIME OF 172800.0 SECONDS REQUESTED
 *  DUMP=N   - RESTART FILE WRITTEN EVERY  4320.000 SECONDS
 *  RELSCF   - DEFAULT SCF CRITERION MULTIPLIED BY   0.100    
 *             (DEFAULT SCFCRT= 0.00010)
 *  THERMO   - THERMODYNAMIC QUANTITIES TO BE CALCULATED
 *******************************************************************************
 PM6 DUMP=4320 MOZYME RELSCF=0.1 THERMO EPS=78.40 RSOLV=1.30 +
 OLDGEO GEO-OK CHARGE=0
 SJ000002349-1_T001S001I001C07_003: Free energy calculation

   ATOM           CHEMICAL             X               Y              Z
  NUMBER           SYMBOL         (ANGSTROMS)     (ANGSTROMS)    (ANGSTROMS)
 
     1       C(     1  C     )   -6.3780000  *  -20.856000  *   10.793000  *
     2       C(     2  C     )   -4.9630000  *  -21.432000  *   10.821000  *
     3       C(     3  C     )   -4.9940000  *  -22.872000  *   11.276000  *
     4       C(     4  C     )   -6.0560000  *  -23.647000  *   10.982000  *
     5       C(     5  C     )   -6.0850000  *  -25.086000  *   11.432000  *
     6       C(     6  C     )   -4.6970000  *  -25.566000  *   11.773000  *
     7       C(     7  C     )   -3.7180000  *  -24.674000  *   12.019000  *
     8       C(     8  C     )   -2.3260000  *  -25.156000  *   12.354000  *
     9       C(     9  C     )   -2.0370000  *  -26.474000  *   11.636000  *
    10       C(    10  C     )   -3.0720000  *  -27.473000  *   12.156000  *
    11       C(    11  C     )   -4.4450000  *  -26.949000  *   11.834000  *
    12       O(    12  O     )   -5.3490000  *  -27.731000  *   11.622000  *
    13       O(    13  O     )   -3.9550000  *  -23.353000  *   11.976000  *
    14       C(    14  C     )   -7.1450000  *  -23.133000  *   10.255000  *
    15       O(    15  O     )   -8.0880000  *  -23.855000  *   10.001000  *
    16       C(    16  C     )   -7.1600000  *  -21.704000  *    9.787000  *
    17       H(    17  C     )   -4.5310000  *  -21.379000  *    9.821000  *
    18       H(    18  C     )   -4.3500000  *  -20.850000  *   11.509000  *
    19       H(    19  C     )   -6.7220000  *  -25.174000  *   12.311000  *
    20       H(    20  C     )   -1.6000000  *  -24.405000  *   12.039000  *
    21       H(    21  C     )   -2.2460000  *  -25.305000  *   13.431000  *
    22       H(    22  C     )   -2.9250000  *  -28.439000  *   11.673000  *
    23       H(    23  C     )   -2.9660000  *  -27.583000  *   13.236000  *
    24       H(    24  C     )   -8.1900000  *  -21.347000  *    9.729000  *
    25       H(    25  C     )   -6.6930000  *  -21.633000  *    8.806000  *
    26       C(    26  C     )   -6.6460000  *  -25.940000  *   10.323000  *
    27       C(    27  C     )   -7.8500000  *  -26.607000  *   10.504000  *
    28       C(    28  C     )   -8.3650000  *  -27.393000  *    9.485000  *
    29       C(    29  C     )   -7.6770000  *  -27.509000  *    8.287000  *
    30       H(    30  C     )   -9.3020000  *  -27.913000  *    9.623000  *
    31       C(    31  C     )   -6.4740000  *  -26.841000  *    8.111000  *
    32       C(    32  C     )   -5.9650000  *  -26.053000  *    9.127000  *
    33       H(    33  C     )   -5.9370000  *  -26.932000  *    7.178000  *
    34       H(    34  C     )   -5.0290000  *  -25.533000  *    8.988000  *
    35       O(    35  O     )   -8.5220000  *  -26.490000  *   11.680000  *
    36       H(    36  O     )   -8.8860000  *  -25.608000  *   11.838000  *
    37       O(    37  O     )   -8.1810000  *  -28.279000  *    7.286000  *
    38       H(    38  O     )   -7.5800000  *  -28.975000  *    6.986000  *
    39       C(    39  C     )   -7.0170000  *  -20.961000  *   12.179000  *
    40       H(    40  C     )   -7.9190000  *  -21.570000  *   12.118000  *
    41       H(    41  C     )   -6.3130000  *  -21.424000  *   12.870000  *
    42       H(    42  C     )   -7.2750000  *  -19.964000  *   12.538000  *
    43       C(    43  C     )   -6.3440000  *  -19.395000  *   10.337000  *
    44       H(    44  C     )   -5.9990000  *  -18.768000  *   11.159000  *
    45       H(    45  C     )   -5.6650000  *  -19.294000  *    9.491000  *
    46       H(    46  C     )   -7.3460000  *  -19.084000  *   10.040000  *
    47       C(    47  C     )   -2.1920000  *  -26.294000  *   10.124000  *
    48       H(    48  C     )   -2.9910000  *  -26.943000  *    9.762000  *
    49       H(    49  C     )   -2.4410000  *  -25.256000  *    9.904000  *
    50       H(    50  C     )   -1.2580000  *  -26.556000  *    9.629000  *
    51       C(    51  C     )   -0.6240000  *  -26.956000  *   11.967000  *
    52       H(    52  C     )    0.0330000  *  -26.766000  *   11.118000  *
    53       H(    53  C     )   -0.2520000  *  -26.419000  *   12.840000  *
    54       H(    54  C     )   -0.6440000  *  -28.025000  *   12.179000  *
 


          CARTESIAN COORDINATES 

    NO.       ATOM         X         Y         Z

     1         C       -6.3780  -20.8560   10.7930
     2         C       -4.9630  -21.4320   10.8210
     3         C       -4.9940  -22.8720   11.2760
     4         C       -6.0560  -23.6470   10.9820
     5         C       -6.0850  -25.0860   11.4320
     6         C       -4.6970  -25.5660   11.7730
     7         C       -3.7180  -24.6740   12.0190
     8         C       -2.3260  -25.1560   12.3540
     9         C       -2.0370  -26.4740   11.6360
    10         C       -3.0720  -27.4730   12.1560
    11         C       -4.4450  -26.9490   11.8340
    12         O       -5.3490  -27.7310   11.6220
    13         O       -3.9550  -23.3530   11.9760
    14         C       -7.1450  -23.1330   10.2550
    15         O       -8.0880  -23.8550   10.0010
    16         C       -7.1600  -21.7040    9.7870
    17         H       -4.5310  -21.3790    9.8210
    18         H       -4.3500  -20.8500   11.5090
    19         H       -6.7220  -25.1740   12.3110
    20         H       -1.6000  -24.4050   12.0390
    21         H       -2.2460  -25.3050   13.4310
    22         H       -2.9250  -28.4390   11.6730
    23         H       -2.9660  -27.5830   13.2360
    24         H       -8.1900  -21.3470    9.7290
    25         H       -6.6930  -21.6330    8.8060
    26         C       -6.6460  -25.9400   10.3230
    27         C       -7.8500  -26.6070   10.5040
    28         C       -8.3650  -27.3930    9.4850
    29         C       -7.6770  -27.5090    8.2870
    30         H       -9.3020  -27.9130    9.6230
    31         C       -6.4740  -26.8410    8.1110
    32         C       -5.9650  -26.0530    9.1270
    33         H       -5.9370  -26.9320    7.1780
    34         H       -5.0290  -25.5330    8.9880
    35         O       -8.5220  -26.4900   11.6800
    36         H       -8.8860  -25.6080   11.8380
    37         O       -8.1810  -28.2790    7.2860
    38         H       -7.5800  -28.9750    6.9860
    39         C       -7.0170  -20.9610   12.1790
    40         H       -7.9190  -21.5700   12.1180
    41         H       -6.3130  -21.4240   12.8700
    42         H       -7.2750  -19.9640   12.5380
    43         C       -6.3440  -19.3950   10.3370
    44         H       -5.9990  -18.7680   11.1590
    45         H       -5.6650  -19.2940    9.4910
    46         H       -7.3460  -19.0840   10.0400
    47         C       -2.1920  -26.2940   10.1240
    48         H       -2.9910  -26.9430    9.7620
    49         H       -2.4410  -25.2560    9.9040
    50         H       -1.2580  -26.5560    9.6290
    51         C       -0.6240  -26.9560   11.9670
    52         H        0.0330  -26.7660   11.1180
    53         H       -0.2520  -26.4190   12.8400
    54         H       -0.6440  -28.0250   12.1790

 General Reference for PM6:
 "Optimization of Parameters for Semiempirical Methods V: Modification of NDDO Approximations
 and Application to 70 Elements", J. J. P. Stewart, J. Mol. Mod., 13, 1173-1213 (2007)
 URL: http://www.springerlink.com/content/ar33482301010477/fulltext.pdf

           Empirical Formula: C23 H26 O5  =    54 atoms



      MOLECULAR POINT GROUP   :   C1  
 
   NUMBER AND TYPES OF BONDS IDENTIFIED
 
         SIGMA BONDS               57
         LONE PAIRS                10
         NORMAL PI BONDS            6
         AROMATIC RING PI BONDS     1
 
  SCF CRITERION =    0.1000E-02


          HEAT OF FORMATION =    -181.990994 KCALS/MOLE


          INTERNAL COORDINATE DERIVATIVES

   NUMBER  ATOM       BOND         ANGLE      DIHEDRAL

     1       C
     2       C     11.030553
     3       C      8.972006     1.591661
     4       C    -28.348121   -18.987808    18.935380
     5       C     40.412580    18.995535   -22.040326
     6       C    -47.427036   -13.885708    23.381851
     7       C     -4.641303     3.120905   -13.447620
     8       C     33.384522    41.337286    17.502512
     9       C    -32.510616   -37.729309    -3.243921
    10       C     29.905851    26.463311     3.101793
    11       C    -10.914272    -2.374699    -4.491842
    12       O      9.258483     6.700181    -5.071010
    13       O    -21.203921   -45.300486    -8.399013
    14       C      3.634000   -37.072812   -12.247611
    15       O    -33.979131    55.345928    37.303284
    16       C     40.548168     6.211907   -27.570355
    17       H     31.049922   -18.231851   -17.544915
    18       H     -3.263911    -8.038151     7.910848
    19       H    -10.806172     9.035125    -8.961631
    20       H     -8.782307    12.195054     8.639232
    21       H      9.297897   -10.174417    16.855170
    22       H     -6.761474    13.506901     6.905646
    23       H     -2.042832    -0.112792    16.892751
    24       H     -6.824472   -12.514560    -3.623429
    25       H     -3.620525   -10.839491     9.560294
    26       C     11.582090     2.021107    -7.335152
    27       C      0.960821     6.108905   -14.430549
    28       C     -6.367368    12.757441    19.991564
    29       C      2.812302     6.768749   -14.004909
    30       H     21.771427   -26.848612    -4.242733
    31       C    -12.741144     3.687909    12.009033
    32       C      4.815840    -6.003432    -0.778514
    33       H    -11.746193    11.021709   -18.760190
    34       H     -8.890451     7.548322    -7.978019
    35       O     -3.727468     2.400216    -6.260466
    36       H     -5.328827     7.399531     0.620428
    37       O      5.817432   -29.314089    10.103320
    38       H      7.183160    11.797214     4.455294
    39       C     23.597607   -10.268211   -11.399473
    40       H    -12.685461    -0.824184    -6.698292
    41       H      0.760148     3.200796    -1.785730
    42       H      5.123133    -4.887129     8.760976
    43       C      3.700972    -4.638651     9.960157
    44       H      3.736368    -3.846180     7.602848
    45       H     -6.046720    -7.527428    -2.272046
    46       H      1.307223     7.781521     2.002830
    47       C      1.992575     8.369311    -2.056367
    48       H      4.232679     5.764885     0.042999
    49       H      0.329664    -2.047631     1.772666
    50       H      0.296132     3.938736   -10.570077
    51       C      0.526676     5.259907   -10.090210
    52       H     -0.641020     3.800303    -9.079528
    53       H      7.402302     0.147653     3.185153
    54       H     -8.939863     1.730842     0.996296


          GRADIENT NORM = 195.66748



 ** GRADIENT IS TOO LARGE TO ALLOW FORCE MATRIX TO BE CALCULATED, (LIMIT=10) **



 EITHER ADD 'LET' OR REDUCE GRADIENT
 USING 'TS' OR OTHER GEOMETRY OPTIMIZER



 TOTAL CPU TIME:             1.27 SECONDS

 == MOPAC DONE ==
