 *******************************************************************************
 ** Site#:  958            For non-commercial use only         Version 9.015L **
 *******************************************************************************
 ** Cite this work as: MOPAC2009, James J. P. Stewart, Stewart Computational  **
 ** Chemistry, Version 9.015L web: HTTP://OpenMOPAC.net                       **
 *******************************************************************************
 **                                                                           **
 **                                MOPAC2009                                  **
 **                                                                           **
 *******************************************************************************

                            PM6 CALCULATION RESULTS


 *******************************************************************************
 *  CALCULATION DONE:                                Tue Sep  6 16:25:13 2011  *
 *  PM6      - The PM6 Hamiltonian to be used
 *
 *
 *
 *                 CHARGE ON SYSTEM =     0
 *
 *
 *
 *  EPS= 78.400
 *  RSOLV=  1.300
 *  LET      - OVERRIDE SOME SAFETY CHECKS
 *  XYZ      - CARTESIAN COORDINATE SYSTEM TO BE USED
 *  T=       - A TIME OF  0.3E+08 SECONDS REQUESTED
 *  DUMP=N   - RESTART FILE WRITTEN EVERY  4320.000 SECONDS
 *  DDMIN=   - MINIMUM TRUST RADIUS  0.000 ANG/RAD
 *  GNORM=   - EXIT WHEN GRADIENT NORM DROPS BELOW .150    
 *  RELSCF   - DEFAULT SCF CRITERION MULTIPLIED BY   0.100    
 *             (DEFAULT SCFCRT= 0.00010)
 *  SYBYL    - OUTPUT SYBYL FILE
 *  MULLIK   - THE MULLIKEN ANALYSIS TO BE PERFORMED
 *******************************************************************************
 PM6 T=31535740 DUMP=4320 XYZ EPS=78.40 RSOLV=1.30 MULLIK SYBYL +
 CHARGE=-0 RELSCF=0.1 LET DDMIN=0.0 GNORM=0.15
 SJ000001504-1_T001S001I001C01: Geometry optimization step

   ATOM   CHEMICAL          X               Y              Z
  NUMBER   SYMBOL      (ANGSTROMS)     (ANGSTROMS)    (ANGSTROMS)
 
     1       C          1.2570000  *    1.971000  *    0.001000  *
     2       C          1.2390000  *    3.359000  *    0.008000  *
     3       C          2.4340000  *    4.066000  *    0.001000  *
     4       C          3.6370000  *    3.387000  *   -0.015000  *
     5       C          3.6510000  *    2.005000  *   -0.023000  *
     6       C          2.4630000  *    1.298000  *   -0.009000  *
     7       H          2.4230000  *    5.146000  *    0.006000  *
     8       H          4.5660000  *    3.937000  *   -0.021000  *
     9       H          4.5930000  *    1.476000  *   -0.035000  *
    10       H          2.4780000  *    0.218000  *   -0.015000  *
    11       N          0.0170000  *    4.046000  *    0.024000  *
    12       C         -0.6700000  *    4.431000  *   -1.066000  *
    13       O         -0.3370000  *    4.244000  *   -2.218000  *
    14       C         -1.9010000  *    5.123000  *   -0.623000  *
    15       C         -1.8870000  *    5.115000  *    0.721000  *
    16       H         -2.6630000  *    5.551000  *   -1.257000  *
    17       C         -0.6510000  *    4.414000  *    1.132000  *
    18       H         -2.6370000  *    5.536000  *    1.375000  *
    19       O         -0.2950000  *    4.213000  *    2.275000  *
    20       N         -0.0140000  *    1.214000  *    0.009000  *
    21       O          0.0020000  *   -0.004000  *    0.002000  *
    22       O         -1.0770000  *    1.808000  *    0.017000  *
 


          CARTESIAN COORDINATES 

    NO.       ATOM         X         Y         Z

     1         C        1.2570    1.9710    0.0010
     2         C        1.2390    3.3590    0.0080
     3         C        2.4340    4.0660    0.0010
     4         C        3.6370    3.3870   -0.0150
     5         C        3.6510    2.0050   -0.0230
     6         C        2.4630    1.2980   -0.0090
     7         H        2.4230    5.1460    0.0060
     8         H        4.5660    3.9370   -0.0210
     9         H        4.5930    1.4760   -0.0350
    10         H        2.4780    0.2180   -0.0150
    11         N        0.0170    4.0460    0.0240
    12         C       -0.6700    4.4310   -1.0660
    13         O       -0.3370    4.2440   -2.2180
    14         C       -1.9010    5.1230   -0.6230
    15         C       -1.8870    5.1150    0.7210
    16         H       -2.6630    5.5510   -1.2570
    17         C       -0.6510    4.4140    1.1320
    18         H       -2.6370    5.5360    1.3750
    19         O       -0.2950    4.2130    2.2750
    20         N       -0.0140    1.2140    0.0090
    21         O        0.0020   -0.0040    0.0020
    22         O       -1.0770    1.8080    0.0170

 General Reference for PM6:
 "Optimization of Parameters for Semiempirical Methods V: Modification of NDDO Approximations
 and Application to 70 Elements", J. J. P. Stewart, J. Mol. Mod., 13, 1173-1213 (2007)
 URL: http://www.springerlink.com/content/ar33482301010477/fulltext.pdf

           Empirical Formula: C10 H6 N2 O4  =    22 atoms



      MOLECULAR POINT GROUP   :   Cs  


      RHF CALCULATION, NO. OF DOUBLY OCCUPIED LEVELS =   40

      Geometry optimization using EF
  SCF CRITERION =    0.1000E-04

          DIAGONAL MATRIX USED AS START HESSIAN

 CYCLE:     1 TIME:   0.063 TIME LEFT: 16.53W  GRAD.:   236.519 HEAT:-15.12427
 CYCLE:     2 TIME:   0.039 TIME LEFT: 16.53W  GRAD.:   362.635 HEAT:-16.17120
 CYCLE:     3 TIME:   0.038 TIME LEFT: 16.53W  GRAD.:   279.119 HEAT:-17.50588
 CYCLE:     4 TIME:   0.038 TIME LEFT: 16.53W  GRAD.:   233.341 HEAT:-21.34563
 CYCLE:     5 TIME:   0.038 TIME LEFT: 16.53W  GRAD.:   240.985 HEAT:-21.78426
 CYCLE:     6 TIME:   0.038 TIME LEFT: 16.53W  GRAD.:   301.970 HEAT:-16.36170
 CYCLE:     7 TIME:   0.038 TIME LEFT: 16.53W  GRAD.:   205.570 HEAT:-23.01195
 CYCLE:     8 TIME:   0.038 TIME LEFT: 16.53W  GRAD.:   252.838 HEAT:-20.96853
 CYCLE:     9 TIME:   0.039 TIME LEFT: 16.53W  GRAD.:   262.463 HEAT:-19.54340
 CYCLE:    10 TIME:   0.039 TIME LEFT: 16.53W  GRAD.:   316.381 HEAT:-18.68014
 CYCLE:    11 TIME:   0.037 TIME LEFT: 16.53W  GRAD.:   294.561 HEAT:-17.66666
 CYCLE:    12 TIME:   0.039 TIME LEFT: 16.53W  GRAD.:   285.252 HEAT:-18.12126
 CYCLE:    13 TIME:   0.038 TIME LEFT: 16.53W  GRAD.:   230.332 HEAT:-23.61853
 CYCLE:    14 TIME:   0.038 TIME LEFT: 16.53W  GRAD.:   380.153 HEAT:-13.62220
 CYCLE:    15 TIME:   0.037 TIME LEFT: 16.53W  GRAD.:   251.919 HEAT:-21.44694
 CYCLE:    16 TIME:   0.038 TIME LEFT: 16.53W  GRAD.:   313.904 HEAT:-18.50564
 CYCLE:    17 TIME:   0.037 TIME LEFT: 16.53W  GRAD.:   283.431 HEAT:-15.67729
 CYCLE:    18 TIME:   0.040 TIME LEFT: 16.53W  GRAD.:   294.504 HEAT:-21.45809
 CYCLE:    19 TIME:   0.037 TIME LEFT: 16.53W  GRAD.:   293.734 HEAT:-19.67807
 CYCLE:    20 TIME:   0.038 TIME LEFT: 16.53W  GRAD.:   340.623 HEAT:-11.10404
 CYCLE:    21 TIME:   0.038 TIME LEFT: 16.53W  GRAD.:   253.851 HEAT:-22.78182
 CYCLE:    22 TIME:   0.038 TIME LEFT: 16.53W  GRAD.:   322.573 HEAT:-15.64372
 CYCLE:    23 TIME:   0.037 TIME LEFT: 16.53W  GRAD.:   323.104 HEAT:-15.45754
 CYCLE:    24 TIME:   0.038 TIME LEFT: 16.53W  GRAD.:   188.368 HEAT:-26.65018
 CYCLE:    25 TIME:   0.038 TIME LEFT: 16.53W  GRAD.:   265.459 HEAT:-18.96796
 CYCLE:    26 TIME:   0.038 TIME LEFT: 16.53W  GRAD.:   293.869 HEAT:-19.34296
 CYCLE:    27 TIME:   0.038 TIME LEFT: 16.53W  GRAD.:   152.786 HEAT:-28.72298
 CYCLE:    28 TIME:   0.038 TIME LEFT: 16.53W  GRAD.:   230.998 HEAT:-23.46667
 CYCLE:    29 TIME:   0.040 TIME LEFT: 16.53W  GRAD.:   134.814 HEAT:-30.75492
 CYCLE:    30 TIME:   0.038 TIME LEFT: 16.53W  GRAD.:   229.833 HEAT:-22.22050
 CYCLE:    31 TIME:   0.037 TIME LEFT: 16.53W  GRAD.:    50.006 HEAT:-35.50150
 CYCLE:    32 TIME:   0.038 TIME LEFT: 16.53W  GRAD.:   100.508 HEAT:-32.51963
 CYCLE:    33 TIME:   0.039 TIME LEFT: 16.53W  GRAD.:    55.426 HEAT:-35.37737
 CYCLE:    34 TIME:   0.037 TIME LEFT: 16.53W  GRAD.:   108.000 HEAT:-31.48047
 CYCLE:    35 TIME:   0.037 TIME LEFT: 16.53W  GRAD.:    36.738 HEAT:-35.79169
 CYCLE:    36 TIME:   0.037 TIME LEFT: 16.53W  GRAD.:    92.088 HEAT:-33.59938
 CYCLE:    37 TIME:   0.038 TIME LEFT: 16.53W  GRAD.:    36.736 HEAT:-35.65382
 CYCLE:    38 TIME:   0.037 TIME LEFT: 16.53W  GRAD.:    73.063 HEAT:-34.42498
 CYCLE:    39 TIME:   0.037 TIME LEFT: 16.53W  GRAD.:    21.518 HEAT:-35.99661
 CYCLE:    40 TIME:   0.038 TIME LEFT: 16.53W  GRAD.:   108.059 HEAT:-32.39755
 CYCLE:    41 TIME:   0.037 TIME LEFT: 16.53W  GRAD.:    12.162 HEAT:-36.09652
 CYCLE:    42 TIME:   0.035 TIME LEFT: 16.53W  GRAD.:    36.433 HEAT:-35.56651
 CYCLE:    43 TIME:   0.035 TIME LEFT: 16.53W  GRAD.:     6.643 HEAT:-36.14814
 CYCLE:    44 TIME:   0.036 TIME LEFT: 16.53W  GRAD.:    33.769 HEAT:-35.75819
 CYCLE:    45 TIME:   0.037 TIME LEFT: 16.53W  GRAD.:     2.839 HEAT:-36.16410
 CYCLE:    46 TIME:   0.035 TIME LEFT: 16.53W  GRAD.:     5.570 HEAT:-36.14585
 CYCLE:    47 TIME:   0.034 TIME LEFT: 16.53W  GRAD.:     1.135 HEAT:-36.16606
 CYCLE:    48 TIME:   0.036 TIME LEFT: 16.53W  GRAD.:     3.190 HEAT:-36.16508
 CYCLE:    49 TIME:   0.035 TIME LEFT: 16.53W  GRAD.:     0.569 HEAT:-36.16895
 CYCLE:    50 TIME:   0.035 TIME LEFT: 16.53W  GRAD.:     0.760 HEAT:-36.17259
 CYCLE:    51 TIME:   0.035 TIME LEFT: 16.53W  GRAD.:     0.522 HEAT:-36.13039
 CYCLE:    52 TIME:   0.037 TIME LEFT: 16.53W  GRAD.:     1.754 HEAT:-36.12828
 CYCLE:    53 TIME:   0.035 TIME LEFT: 16.53W  GRAD.:     0.775 HEAT:-36.13113
 CYCLE:    54 TIME:   0.036 TIME LEFT: 16.53W  GRAD.:     0.762 HEAT:-36.13481
 CYCLE:    55 TIME:   0.035 TIME LEFT: 16.53W  GRAD.:     0.389 HEAT:-36.17323
 CYCLE:    56 TIME:   0.035 TIME LEFT: 16.53W  GRAD.:     0.525 HEAT:-36.16753
 CYCLE:    57 TIME:   0.035 TIME LEFT: 16.53W  GRAD.:     0.499 HEAT:-36.16902
 CYCLE:    58 TIME:   0.035 TIME LEFT: 16.53W  GRAD.:     0.466 HEAT:-36.17415
 CYCLE:    59 TIME:   0.036 TIME LEFT: 16.53W  GRAD.:     0.646 HEAT:-36.17542
 CYCLE:    60 TIME:   0.036 TIME LEFT: 16.53W  GRAD.:     0.375 HEAT:-36.17867
 CYCLE:    61 TIME:   0.035 TIME LEFT: 16.53W  GRAD.:     0.398 HEAT:-36.19875
 CYCLE:    62 TIME:   0.036 TIME LEFT: 16.53W  GRAD.:     0.663 HEAT:-36.19815
 CYCLE:    63 TIME:   0.036 TIME LEFT: 16.53W  GRAD.:     0.839 HEAT:-36.19790
 CYCLE:    64 TIME:   0.035 TIME LEFT: 16.53W  GRAD.:     0.316 HEAT:-36.20069
 CYCLE:    65 TIME:   0.035 TIME LEFT: 16.53W  GRAD.:     0.258 HEAT:-36.20175
 CYCLE:    66 TIME:   0.035 TIME LEFT: 16.53W  GRAD.:     0.147 HEAT:-36.20293

     RMS GRADIENT =  0.14676  IS LESS THAN CUTOFF =  0.15000



 -------------------------------------------------------------------------------
 PM6 T=31535740 DUMP=4320 XYZ EPS=78.40 RSOLV=1.30 MULLIK SYBYL +
 CHARGE=-0 RELSCF=0.1 LET DDMIN=0.0 GNORM=0.15
 SJ000001504-1_T001S001I001C01: Geometry optimization step



     GEOMETRY OPTIMISED USING EIGENVECTOR FOLLOWING (EF).     
     SCF FIELD WAS ACHIEVED                                   


                               PM6     CALCULATION
                                                       MOPAC2009 (Version: 9.015L)
                                                       Tue Sep  6 16:25:15 2011




          FINAL HEAT OF FORMATION =        -36.20293 KCAL =    -151.47306 KJ
          VAN DER WAALS AREA      =        217.08 SQUARE ANGSTROMS


          TOTAL ENERGY            =      -2827.22941 EV
          ELECTRONIC ENERGY       =      -4063.76531 EV  POINT GROUP:     Cs  
          CORE-CORE REPULSION     =       1236.53590 EV
          DIELECTRIC ENERGY       =         -0.77828 EV
          COSMO AREA              =        217.08 SQUARE ANGSTROMS
          COSMO VOLUME            =        234.47 CUBIC ANGSTROMS

          IONIZATION POTENTIAL    =         10.468000 EV
          HOMO LUMO ENERGIES (EV) =        -10.468 -1.813
          NO. OF FILLED LEVELS    =         40
          MOLECULAR WEIGHT        =        218.168

          MOLECULAR DIMENSIONS (Angstroms)

            Atom       Atom       Distance
            H     9    H    16     8.53220
            H     8    O    21     5.70432
            O    13    O    19     4.55661


          SCF CALCULATIONS        =         68
          COMPUTATION TIME        =          2.502 SECONDS




   ATOM   CHEMICAL          X               Y              Z
  NUMBER   SYMBOL      (ANGSTROMS)     (ANGSTROMS)    (ANGSTROMS)
 
     1       C          1.2435290  *    1.940277  *    0.000373  *
     2       C          1.2466523  *    3.358948  *    0.007944  *
     3       C          2.4582785  *    4.057027  *   -0.000400  *
     4       C          3.6692826  *    3.356217  *   -0.017191  *
     5       C          3.6748479  *    1.957234  *   -0.025523  *
     6       C          2.4751220  *    1.250945  *   -0.016421  *
     7       H          2.4609291  *    5.153290  *    0.005657  *
     8       H          4.6161987  *    3.909795  *   -0.023485  *
     9       H          4.6258577  *    1.413782  *   -0.039053  *
    10       H          2.4804788  *    0.151593  *   -0.022474  *
    11       N          0.0252774  *    4.122428  *    0.025065  *
    12       C         -0.7257348  *    4.507543  *   -1.154725  *
    13       O         -0.3671177  *    4.293331  *   -2.282861  *
    14       C         -1.9581893  *    5.196254  *   -0.618178  *
    15       C         -1.9474538  *    5.184297  *    0.719352  *
    16       H         -2.6926287  *    5.614653  *   -1.300330  *
    17       C         -0.7070220  *    4.485450  *    1.223528  *
    18       H         -2.6705189  *    5.590796  *    1.420628  *
    19       O         -0.3307647  *    4.248687  *    2.341343  *
    20       N          0.0219755  *    1.141339  *    0.009011  *
    21       O          0.1292651  *   -0.080911  *    0.025608  *
    22       O         -1.0712969  *    1.695451  *    0.001070  *

           Empirical Formula: C10 H6 N2 O4  =    22 atoms



      MOLECULAR POINT GROUP   :   Cs  


                  EIGENVALUES  
 -35.54434 -34.11071 -33.17454 -32.40907 -32.29042 -31.06328 -29.12417 -27.98410
 -26.34468 -24.77371 -24.39191 -22.75017 -21.97682 -21.39839 -20.85630 -19.39433
 -18.64505 -18.57204 -18.13546 -17.25460 -16.85956 -16.75188 -16.21403 -15.98467
 -15.70838 -15.57328 -15.37215 -14.75708 -14.06508 -13.65855 -13.19654 -12.55353
 -12.38532 -12.19412 -12.05765 -11.99791 -11.60845 -11.15096 -10.86585 -10.46800
  -1.81293  -1.74692  -0.64671  -0.27458  -0.19722   0.01379   0.49352   0.60928
   1.54326   1.92242   2.09600   2.59976   2.77820   3.11024   3.12648   3.52685
   3.69751   3.75545   3.77948   3.99121   4.11272   4.30890   4.39995   4.65255
   5.15938   5.17713   5.19735   5.44588   5.58228   5.66514


              NET ATOMIC CHARGES AND DIPOLE CONTRIBUTIONS

  ATOM NO.   TYPE          CHARGE      No. of ELECS.   s-Pop       p-Pop       
    1          C          -0.298493        4.2985     1.11608     3.18241
    2          C           0.326674        3.6733     1.06714     2.60618
    3          C          -0.265739        4.2657     1.11979     3.14595
    4          C           0.014597        3.9854     1.11907     2.86633
    5          C          -0.222445        4.2224     1.11400     3.10845
    6          C           0.019546        3.9805     1.11634     2.86411
    7          H           0.206487        0.7935     0.79351
    8          H           0.179121        0.8209     0.82088
    9          H           0.194816        0.8052     0.80518
   10          H           0.189169        0.8108     0.81083
   11          N          -0.560378        5.5604     1.55612     4.00426
   12          C           0.657350        3.3426     1.08767     2.25498
   13          O          -0.495406        6.4954     1.84714     4.64827
   14          C          -0.199358        4.1994     1.14518     3.05417
   15          C          -0.197382        4.1974     1.14517     3.05222
   16          H           0.223656        0.7763     0.77634
   17          C           0.656470        3.3435     1.08786     2.25567
   18          H           0.223578        0.7764     0.77642
   19          O          -0.494853        6.4949     1.84716     4.64770
   20          N           0.893544        4.1065     1.28996     2.81650
   21          O          -0.522497        6.5225     1.91963     4.60287
   22          O          -0.528458        6.5285     1.91902     4.60944
 DIPOLE           X         Y         Z       TOTAL
 POINT-CHG.     4.114     5.415    -0.013     6.801
 HYBRID        -0.176    -0.489    -0.002     0.519
 SUM            3.939     4.926    -0.014     6.307


          CARTESIAN COORDINATES 

    NO.       ATOM               X         Y         Z

     1         C                  1.2435    1.9403    0.0004
     2         C                  1.2467    3.3589    0.0079
     3         C                  2.4583    4.0570   -0.0004
     4         C                  3.6693    3.3562   -0.0172
     5         C                  3.6748    1.9572   -0.0255
     6         C                  2.4751    1.2509   -0.0164
     7         H                  2.4609    5.1533    0.0057
     8         H                  4.6162    3.9098   -0.0235
     9         H                  4.6259    1.4138   -0.0391
    10         H                  2.4805    0.1516   -0.0225
    11         N                  0.0253    4.1224    0.0251
    12         C                 -0.7257    4.5075   -1.1547
    13         O                 -0.3671    4.2933   -2.2829
    14         C                 -1.9582    5.1963   -0.6182
    15         C                 -1.9475    5.1843    0.7194
    16         H                 -2.6926    5.6147   -1.3003
    17         C                 -0.7070    4.4855    1.2235
    18         H                 -2.6705    5.5908    1.4206
    19         O                 -0.3308    4.2487    2.3413
    20         N                  0.0220    1.1413    0.0090
    21         O                  0.1293   -0.0809    0.0256
    22         O                 -1.0713    1.6955    0.0011


          ATOMIC ORBITAL ELECTRON POPULATIONS

   1.11608   0.94650   0.99288   1.24302   1.06714   0.83669   0.86407   0.90542
   1.11979   0.97541   1.11350   1.05704   1.11907   1.03987   0.98343   0.84303
   1.11400   1.06624   1.01093   1.03129   1.11634   0.92739   1.07629   0.86043
   0.79351   0.82088   0.80518   0.81083   1.55612   1.26798   1.55365   1.18263
   1.08767   0.79517   0.69228   0.76753   1.84714   1.71966   1.57748   1.35113
   1.14518   1.02728   0.99475   1.03214   1.14517   1.02477   0.99255   1.03490
   0.77634   1.08786   0.79649   0.69356   0.76561   0.77642   1.84716   1.71438
   1.57412   1.35920   1.28996   0.96786   0.94522   0.90342   1.91963   1.90644
   1.11388   1.58255   1.91902   1.27935   1.74414   1.58594

           MULLIKEN POPULATION ANALYSIS



        MULLIKEN POPULATIONS AND CHARGES

      NO.  ATOM   POPULATION      CHARGE
        1    C     4.306966     -0.306966
        2    C     3.615714      0.384286
        3    C     4.329358     -0.329358
        4    C     4.029077     -0.029077
        5    C     4.284690     -0.284690
        6    C     4.012521     -0.012521
        7    H     0.732395      0.267605
        8    H     0.766721      0.233279
        9    H     0.746867      0.253133
       10    H     0.754614      0.245386
       11    N     5.689077     -0.689077
       12    C     3.279056      0.720944
       13    O     6.520788     -0.520788
       14    C     4.262604     -0.262604
       15    C     4.260413     -0.260413
       16    H     0.709361      0.290639
       17    C     3.280061      0.719939
       18    H     0.709473      0.290527
       19    O     6.520213     -0.520213
       20    N     4.155331      0.844669
       21    O     6.514201     -0.514201
       22    O     6.520499     -0.520499



 TOTAL CPU TIME:             2.51 SECONDS

 == MOPAC DONE ==
 *******************************************************************************
 ** Site#:  958            For non-commercial use only         Version 9.015L **
 *******************************************************************************
 ** Cite this work as: MOPAC2009, James J. P. Stewart, Stewart Computational  **
 ** Chemistry, Version 9.015L web: HTTP://OpenMOPAC.net                       **
 *******************************************************************************
 **                                                                           **
 **                                MOPAC2009                                  **
 **                                                                           **
 *******************************************************************************

                            PM6 CALCULATION RESULTS


 *******************************************************************************
 *  CALCULATION DONE:                                Tue Sep  6 16:25:15 2011  *
 *  PM6      - The PM6 Hamiltonian to be used
 *  GEO-OK   - OVERRIDE INTERATOMIC DISTANCE CHECK
 *
 *
 *
 *                 CHARGE ON SYSTEM =     0
 *
 *
 *
 *  EPS= 78.400
 *  RSOLV=  1.300
 *  OLDGEO   - PREVIOUS GEOMETRY TO BE USED
 *  T=       - A TIME OF 172800.0 SECONDS REQUESTED
 *  DUMP=N   - RESTART FILE WRITTEN EVERY  4320.000 SECONDS
 *  RELSCF   - DEFAULT SCF CRITERION MULTIPLIED BY   0.100    
 *             (DEFAULT SCFCRT= 0.00010)
 *  THERMO   - THERMODYNAMIC QUANTITIES TO BE CALCULATED
 *******************************************************************************
 PM6 DUMP=4320 RELSCF=0.1 THERMO EPS=78.40 RSOLV=1.30 +
 OLDGEO GEO-OK CHARGE=-0
 SJ000001504-1_T001S001I001C01: Free energy calculation

   ATOM   CHEMICAL          X               Y              Z
  NUMBER   SYMBOL      (ANGSTROMS)     (ANGSTROMS)    (ANGSTROMS)
 
     1       C          1.2435290  *    1.940277  *    0.000373  *
     2       C          1.2466523  *    3.358948  *    0.007944  *
     3       C          2.4582785  *    4.057027  *   -0.000400  *
     4       C          3.6692826  *    3.356217  *   -0.017191  *
     5       C          3.6748479  *    1.957234  *   -0.025523  *
     6       C          2.4751220  *    1.250945  *   -0.016421  *
     7       H          2.4609291  *    5.153290  *    0.005657  *
     8       H          4.6161987  *    3.909795  *   -0.023485  *
     9       H          4.6258577  *    1.413782  *   -0.039053  *
    10       H          2.4804788  *    0.151593  *   -0.022474  *
    11       N          0.0252774  *    4.122428  *    0.025065  *
    12       C         -0.7257348  *    4.507543  *   -1.154725  *
    13       O         -0.3671177  *    4.293331  *   -2.282861  *
    14       C         -1.9581893  *    5.196254  *   -0.618178  *
    15       C         -1.9474538  *    5.184297  *    0.719352  *
    16       H         -2.6926287  *    5.614653  *   -1.300330  *
    17       C         -0.7070220  *    4.485450  *    1.223528  *
    18       H         -2.6705189  *    5.590796  *    1.420628  *
    19       O         -0.3307647  *    4.248687  *    2.341343  *
    20       N          0.0219755  *    1.141339  *    0.009011  *
    21       O          0.1292651  *   -0.080911  *    0.025608  *
    22       O         -1.0712969  *    1.695451  *    0.001070  *
 


          CARTESIAN COORDINATES 

    NO.       ATOM         X         Y         Z

     1         C        1.2435    1.9403    0.0004
     2         C        1.2467    3.3589    0.0079
     3         C        2.4583    4.0570   -0.0004
     4         C        3.6693    3.3562   -0.0172
     5         C        3.6748    1.9572   -0.0255
     6         C        2.4751    1.2509   -0.0164
     7         H        2.4609    5.1533    0.0057
     8         H        4.6162    3.9098   -0.0235
     9         H        4.6259    1.4138   -0.0391
    10         H        2.4805    0.1516   -0.0225
    11         N        0.0253    4.1224    0.0251
    12         C       -0.7257    4.5075   -1.1547
    13         O       -0.3671    4.2933   -2.2829
    14         C       -1.9582    5.1963   -0.6182
    15         C       -1.9475    5.1843    0.7194
    16         H       -2.6926    5.6147   -1.3003
    17         C       -0.7070    4.4855    1.2235
    18         H       -2.6705    5.5908    1.4206
    19         O       -0.3308    4.2487    2.3413
    20         N        0.0220    1.1413    0.0090
    21         O        0.1293   -0.0809    0.0256
    22         O       -1.0713    1.6955    0.0011

 General Reference for PM6:
 "Optimization of Parameters for Semiempirical Methods V: Modification of NDDO Approximations
 and Application to 70 Elements", J. J. P. Stewart, J. Mol. Mod., 13, 1173-1213 (2007)
 URL: http://www.springerlink.com/content/ar33482301010477/fulltext.pdf

           Empirical Formula: C10 H6 N2 O4  =    22 atoms



      MOLECULAR POINT GROUP   :   Cs  


      RHF CALCULATION, NO. OF DOUBLY OCCUPIED LEVELS =   40

  SCF CRITERION =    0.1000E-04


          HEAT OF FORMATION =     -36.202901 KCALS/MOLE


          INTERNAL COORDINATE DERIVATIVES

   NUMBER  ATOM       BOND         ANGLE      DIHEDRAL

     1       C
     2       C     -0.042938
     3       C     -0.054777     0.007882
     4       C      0.047705     0.046089     0.006015
     5       C     -0.002111    -0.050821    -0.016483
     6       C     -0.007021     0.034026     0.003747
     7       H     -0.002491    -0.038555     0.026889
     8       H     -0.019759     0.030146    -0.023979
     9       H      0.008158    -0.005281    -0.011906
    10       H     -0.001898    -0.009390    -0.010788
    11       N     -0.007493     0.000733     0.010048
    12       C      0.020185    -0.008616    -0.016451
    13       O      0.007393    -0.015497     0.002907
    14       C     -0.078874     0.098470    -0.003401
    15       C      0.024397    -0.054152    -0.003868
    16       H      0.043408    -0.020365     0.000451
    17       C     -0.013229    -0.026055     0.007337
    18       H     -0.015945     0.029528    -0.005880
    19       O      0.078681    -0.043458     0.016676
    20       N      0.028970     0.001269     0.004536
    21       O     -0.058979     0.071654     0.002101
    22       O     -0.032425     0.063961     0.054116


          GRADIENT NORM =   0.26904


          TIME FOR SCF CALCULATION =    0.05

          TIME FOR DERIVATIVES     =    0.03

          MOLECULAR WEIGHT =  218.17



          ROTATIONAL CONSTANTS IN CM(-1)

          A =    0.02755106   B =    0.01589995   C =    0.01367172



           PRINCIPAL MOMENTS OF INERTIA IN UNITS OF 10**(-40)*GRAM-CM**2

          A =     1016.0327   B =     1760.5573   C =     2047.4954


          ORIENTATION OF MOLECULE IN FORCE CALCULATION

    NO.       ATOM         X         Y         Z

     1          C      -1.1847    0.8035    0.0004
     2          C       0.2340    0.8035    0.0004
     3          C       0.9346    2.0137    0.0004
     4          C       0.2364    3.2263    0.0014
     5          C      -1.1626    3.2350    0.0022
     6          C      -1.8714    2.0367    0.0013
     7          H       2.0309    2.0139    0.0002
     8          H       0.7920    4.1720    0.0012
     9          H      -1.7040    4.1872    0.0033
    10          H      -2.9708    2.0445    0.0014
    11          N       0.9948   -0.4196   -0.0004
    12          C       1.3720   -1.1596    1.1889
    13          O       1.1525   -0.7893    2.3122
    14          C       2.0608   -2.3988    0.6683
    15          C       2.0560   -2.4014   -0.6693
    16          H       2.4740   -3.1273    1.3600
    17          C       1.3626   -1.1646   -1.1895
    18          H       2.4647   -3.1323   -1.3611
    19          O       1.1327   -0.7990   -2.3123
    20          N      -1.9863   -0.4163   -0.0003
    21          O      -3.2082   -0.3066   -0.0245
    22          O      -1.4347   -1.5106    0.0215


    FIRST DERIVATIVES WILL BE USED IN THE CALCULATION OF SECOND DERIVATIVES

          ESTIMATED TIME TO COMPLETE CALCULATION =       10.82 SECONDS

    FOR POINT-GROUP Cs   THERE ARE   2 UNIQUE SYMMETRY FUNCTIONS.

 STEP:   1 TIME =     0.07 SECS, INTEGRAL =      0.07 TIME LEFT: 172799.85
 STEP:   2 TIME =     0.07 SECS, INTEGRAL =      0.14 TIME LEFT: 172799.77
 STEP:   3 TIME =     0.07 SECS, INTEGRAL =      0.22 TIME LEFT: 172799.70
 STEP:   4 TIME =     0.07 SECS, INTEGRAL =      0.29 TIME LEFT: 172799.63
 STEP:   5 TIME =     0.07 SECS, INTEGRAL =      0.36 TIME LEFT: 172799.56
 STEP:   6 TIME =     0.07 SECS, INTEGRAL =      0.43 TIME LEFT: 172799.49
 STEP:   7 TIME =     0.07 SECS, INTEGRAL =      0.50 TIME LEFT: 172799.42
 STEP:   8 TIME =     0.07 SECS, INTEGRAL =      0.57 TIME LEFT: 172799.35
 STEP:   9 TIME =     0.07 SECS, INTEGRAL =      0.64 TIME LEFT: 172799.28
 STEP:  10 TIME =     0.07 SECS, INTEGRAL =      0.71 TIME LEFT: 172799.20
 STEP:  11 TIME =     0.07 SECS, INTEGRAL =      0.78 TIME LEFT: 172799.13
 STEP:  12 TIME =     0.07 SECS, INTEGRAL =      0.86 TIME LEFT: 172799.06
 STEP:  13 TIME =     0.07 SECS, INTEGRAL =      0.93 TIME LEFT: 172798.99
 STEP:  14 TIME =     0.07 SECS, INTEGRAL =      1.00 TIME LEFT: 172798.92
 STEP:  15 TIME =     0.07 SECS, INTEGRAL =      1.07 TIME LEFT: 172798.85
 STEP:  16 TIME =     0.07 SECS, INTEGRAL =      1.14 TIME LEFT: 172798.78
 STEP:  17 TIME =     0.07 SECS, INTEGRAL =      1.21 TIME LEFT: 172798.71
 STEP:  18 TIME =     0.07 SECS, INTEGRAL =      1.28 TIME LEFT: 172798.64
 STEP:  19 TIME =     0.07 SECS, INTEGRAL =      1.35 TIME LEFT: 172798.57
 STEP:  20 TIME =     0.07 SECS, INTEGRAL =      1.42 TIME LEFT: 172798.50
 STEP:  21 TIME =     0.07 SECS, INTEGRAL =      1.48 TIME LEFT: 172798.44
 STEP:  22 TIME =     0.07 SECS, INTEGRAL =      1.55 TIME LEFT: 172798.37
 STEP:  23 TIME =     0.07 SECS, INTEGRAL =      1.62 TIME LEFT: 172798.30
 STEP:  24 TIME =     0.07 SECS, INTEGRAL =      1.68 TIME LEFT: 172798.24
 STEP:  25 TIME =     0.07 SECS, INTEGRAL =      1.75 TIME LEFT: 172798.17
 STEP:  26 TIME =     0.07 SECS, INTEGRAL =      1.82 TIME LEFT: 172798.10
 STEP:  27 TIME =     0.07 SECS, INTEGRAL =      1.88 TIME LEFT: 172798.03
 STEP:  28 TIME =     0.07 SECS, INTEGRAL =      1.95 TIME LEFT: 172797.97
 STEP:  29 TIME =     0.07 SECS, INTEGRAL =      2.02 TIME LEFT: 172797.90
 STEP:  30 TIME =     0.07 SECS, INTEGRAL =      2.09 TIME LEFT: 172797.83
 STEP:  31 TIME =     0.07 SECS, INTEGRAL =      2.15 TIME LEFT: 172797.76
 STEP:  32 TIME =     0.07 SECS, INTEGRAL =      2.22 TIME LEFT: 172797.69
 STEP:  33 TIME =     0.07 SECS, INTEGRAL =      2.29 TIME LEFT: 172797.62
 STEP:  34 TIME =     0.07 SECS, INTEGRAL =      2.36 TIME LEFT: 172797.55
 STEP:  35 TIME =     0.07 SECS, INTEGRAL =      2.44 TIME LEFT: 172797.48
 STEP:  36 TIME =     0.07 SECS, INTEGRAL =      2.51 TIME LEFT: 172797.41
 STEP:  37 TIME =     0.07 SECS, INTEGRAL =      2.58 TIME LEFT: 172797.34
 STEP:  38 TIME =     0.07 SECS, INTEGRAL =      2.64 TIME LEFT: 172797.27
 STEP:  39 TIME =     0.07 SECS, INTEGRAL =      2.71 TIME LEFT: 172797.20
 STEP:  40 TIME =     0.07 SECS, INTEGRAL =      2.79 TIME LEFT: 172797.13
 STEP:  41 TIME =     0.07 SECS, INTEGRAL =      2.85 TIME LEFT: 172797.06
 STEP:  42 TIME =     0.07 SECS, INTEGRAL =      2.92 TIME LEFT: 172796.99
 STEP:  43                       INTEGRAL =      2.92 TIME LEFT: 172796.99
 STEP:  44                       INTEGRAL =      2.92 TIME LEFT: 172796.99
 STEP:  45                       INTEGRAL =      2.92 TIME LEFT: 172796.99
 STEP:  46 TIME =     0.07 SECS, INTEGRAL =      2.99 TIME LEFT: 172796.93
 STEP:  47 TIME =     0.07 SECS, INTEGRAL =      3.06 TIME LEFT: 172796.86
 STEP:  48 TIME =     0.07 SECS, INTEGRAL =      3.13 TIME LEFT: 172796.79
 STEP:  49                       INTEGRAL =      3.13 TIME LEFT: 172796.79
 STEP:  50                       INTEGRAL =      3.13 TIME LEFT: 172796.79
 STEP:  51                       INTEGRAL =      3.13 TIME LEFT: 172796.79
 STEP:  52                       INTEGRAL =      3.13 TIME LEFT: 172796.79
 STEP:  53                       INTEGRAL =      3.13 TIME LEFT: 172796.79
 STEP:  54                       INTEGRAL =      3.13 TIME LEFT: 172796.79
 STEP:  55                       INTEGRAL =      3.13 TIME LEFT: 172796.79
 STEP:  56                       INTEGRAL =      3.13 TIME LEFT: 172796.79
 STEP:  57                       INTEGRAL =      3.13 TIME LEFT: 172796.79
 STEP:  58 TIME =     0.07 SECS, INTEGRAL =      3.20 TIME LEFT: 172796.72
 STEP:  59 TIME =     0.07 SECS, INTEGRAL =      3.27 TIME LEFT: 172796.65
 STEP:  60 TIME =     0.07 SECS, INTEGRAL =      3.34 TIME LEFT: 172796.58
 STEP:  61 TIME =     0.07 SECS, INTEGRAL =      3.41 TIME LEFT: 172796.51
 STEP:  62 TIME =     0.07 SECS, INTEGRAL =      3.48 TIME LEFT: 172796.44
 STEP:  63 TIME =     0.07 SECS, INTEGRAL =      3.55 TIME LEFT: 172796.37
 STEP:  64 TIME =     0.07 SECS, INTEGRAL =      3.62 TIME LEFT: 172796.30
 STEP:  65 TIME =     0.07 SECS, INTEGRAL =      3.68 TIME LEFT: 172796.23
 STEP:  66 TIME =     0.07 SECS, INTEGRAL =      3.75 TIME LEFT: 172796.17

(To convert to Hartree/Bohr^2, multiply by (10^(-21) x N x a0^2)/(4.184 x 627.51) = 0.0642)


           FORCE MATRIX IN MILLIDYNES/ANGSTROM


                  C  1       C  2       C  3       C  4       C  5       C  6
 ------------------------------------------------------------------------------
     C    1  14.340519
     C    2   4.597311  14.901086
     C    3   2.096178   5.279529  13.962741
     C    4   1.519793   2.299353   5.403529  13.962833
     C    5   2.177521   1.520547   2.237683   5.413896  14.052783
     C    6   4.828369   1.997151   1.443991   2.309600   5.623548  13.982977
     H    7   0.082275   0.698070   3.413911   0.661634   0.086305   0.010864
     H    8   0.059464   0.101535   0.643601   3.430835   0.630966   0.096382
     H    9   0.087595   0.016181   0.088678   0.681633   3.423916   0.691354
     H   10   0.601427   0.082345   0.043336   0.105104   0.656541   3.404409
     N   11   0.926339   4.559858   1.082394   0.173266   0.061726   0.102465
     C   12   0.120969   0.864049   0.194770   0.128313   0.108636   0.102294
     O   13   0.040439   0.160346   0.070926   0.048331   0.041569   0.038710
     C   14   0.012724   0.110490   0.034663   0.020399   0.015399   0.014434
     C   15   0.012346   0.110526   0.034358   0.019702   0.014780   0.015487
     H   16   0.002316   0.021964   0.008958   0.005354   0.004166   0.004025
     C   17   0.127216   0.862471   0.196930   0.130015   0.103687   0.101018
     H   18   0.004075   0.021978   0.009479   0.006057   0.004466   0.004710
     O   19   0.042272   0.158766   0.072379   0.050441   0.041538   0.039782
     N   20   2.813932   1.322531   0.318510   0.093422   0.281767   1.333810
     O   21   1.550323   0.244133   0.089748   0.034045   0.039327   0.138506
     O   22   1.390727   0.192510   0.038150   0.027623   0.094384   0.146834


                  H  7       H  8       H  9       H 10       N 11       C 12
 ------------------------------------------------------------------------------
     H    7   4.231246
     H    8   0.026597   4.182657
     H    9   0.011946   0.031187   4.235049
     H   10   0.012506   0.015687   0.034549   4.167112
     N   11   0.043093   0.026660   0.025883   0.020041  13.895217
     C   12   0.040724   0.022811   0.024557   0.018642   2.958621  16.830490
     O   13   0.015089   0.009526   0.010024   0.007567   1.971152  11.248027
     C   14   0.006815   0.003517   0.003803   0.003087   1.129055   3.125144
     C   15   0.007032   0.004191   0.004157   0.002755   1.128187   1.063940
     H   16   0.001764   0.000916   0.001068   0.000778   0.075154   0.556539
     C   17   0.041257   0.027847   0.025101   0.017623   2.963619   2.344579
     H   18   0.001817   0.001109   0.001033   0.000615   0.076400   0.185569
     O   19   0.015548   0.011582   0.010474   0.007275   1.963864   0.564853
     N   20   0.044977   0.073857   0.045281   0.170806   0.286815   0.305841
     O   21   0.018480   0.022972   0.017202   0.078395   0.114141   0.123267
     O   22   0.014359   0.019558   0.016441   0.039100   0.224719   0.117131


                  O 13       C 14       C 15       H 16       C 17       H 18
 ------------------------------------------------------------------------------
     O   13  13.373035
     C   14   1.020199  15.375465
     C   15   0.078937   9.329965  15.375465
     H   16   0.051374   3.472466   0.605558   4.183463
     C   17   0.567618   1.049780   3.125144   0.185807  16.830490
     H   18   0.044043   0.602250   3.467094   0.037016   0.556539   4.183463
     O   19   0.274159   0.082477   1.020199   0.046832  11.248027   0.051374
     N   20   0.109007   0.040937   0.040989   0.012814   0.305571   0.012925
     O   21   0.046359   0.018216   0.018254   0.005955   0.123170   0.005983
     O   22   0.051643   0.016346   0.016587   0.005738   0.116699   0.005739


                  O 19       N 20       O 21       O 22
 ------------------------------------------------------
     O   19  13.373035
     N   20   0.108716  17.540176
     O   21   0.046188   8.523516  11.681830
     O   22   0.051455   8.594125   2.920370  11.676181


          HEAT OF FORMATION =     -36.202901 KCALS/MOLE

          ZERO POINT ENERGY      88.878 KCAL/MOL


           NORMAL COORDINATE ANALYSIS (Total motion = 1 Angstrom)


   Root No.       1         2         3         4         5         6         7         8

                 1 A"      2 A"      1 A'      3 A"      2 A'      4 A"      3 A'      5 A"  

                  30.8      52.1      60.4      78.3     104.3     125.9     221.5     250.9
  
           1   -0.0001   -0.0001   -0.0174   -0.0001   -0.0219    0.0003    0.0310   -0.0003
           2   -0.0001    0.0000   -0.0003    0.0000   -0.0111    0.0002   -0.0123   -0.0002
           3    0.0173   -0.0066    0.0000    0.0127   -0.0001   -0.0377    0.0002    0.0494
           4    0.0001   -0.0002   -0.0183    0.0002   -0.0216    0.0002    0.0316   -0.0002
           5    0.0001   -0.0002   -0.0212    0.0001   -0.0200    0.0001    0.0124   -0.0001
           6   -0.0142    0.0118   -0.0003   -0.0290   -0.0003   -0.0222    0.0002    0.0335
           7    0.0004   -0.0002   -0.0005    0.0004   -0.0151   -0.0003   -0.0146   -0.0004
           8    0.0003   -0.0002   -0.0305    0.0001   -0.0234   -0.0003    0.0422   -0.0003
           9   -0.0537    0.0217   -0.0003   -0.0451   -0.0004    0.0494    0.0000    0.0567
          10    0.0004   -0.0001    0.0186    0.0001   -0.0061   -0.0004   -0.0489    0.0002
          11    0.0003   -0.0001   -0.0202    0.0000   -0.0187   -0.0003    0.0245    0.0001
          12   -0.0552    0.0050   -0.0001    0.0069   -0.0002    0.0794   -0.0004   -0.0193
          13    0.0001    0.0002    0.0186   -0.0004   -0.0059    0.0001   -0.0487    0.0004
          14    0.0001    0.0001    0.0003   -0.0003   -0.0095    0.0000   -0.0069    0.0002
          15   -0.0137   -0.0340    0.0003    0.0778   -0.0001    0.0059   -0.0004   -0.0439
          16   -0.0002    0.0002    0.0015   -0.0004   -0.0125    0.0005   -0.0041   -0.0002
          17   -0.0001    0.0002    0.0107   -0.0002   -0.0053    0.0003   -0.0293   -0.0001
          18    0.0228   -0.0422    0.0003    0.0757    0.0000   -0.0565   -0.0001    0.0386
          19    0.0006   -0.0004   -0.0003    0.0007   -0.0150   -0.0005   -0.0147   -0.0007
          20    0.0004   -0.0004   -0.0458    0.0003   -0.0297   -0.0004    0.0791   -0.0005
          21   -0.0815    0.0404   -0.0006   -0.0899   -0.0005    0.0842    0.0001    0.1011
          22    0.0005   -0.0001    0.0321    0.0002    0.0001   -0.0009   -0.0715    0.0005
          23    0.0004   -0.0002   -0.0281    0.0000   -0.0224   -0.0007    0.0378    0.0002
          24   -0.0871    0.0189   -0.0002   -0.0033   -0.0003    0.1546   -0.0005   -0.0603
          25    0.0000    0.0004    0.0318   -0.0008   -0.0004    0.0002   -0.0756    0.0009
          26    0.0000    0.0002    0.0075   -0.0005   -0.0066    0.0001   -0.0223    0.0005
          27   -0.0099   -0.0577    0.0005    0.1340    0.0000    0.0029   -0.0007   -0.1184
          28   -0.0004    0.0005    0.0018   -0.0008   -0.0125    0.0009   -0.0064   -0.0005
          29   -0.0003    0.0004    0.0268   -0.0004    0.0023    0.0006   -0.0625   -0.0002
          30    0.0570   -0.0791    0.0007    0.1250    0.0002   -0.1103   -0.0002    0.0756
          31    0.0001   -0.0002   -0.0300    0.0002   -0.0252    0.0002    0.0699    0.0001
          32    0.0001   -0.0001   -0.0284    0.0001   -0.0223    0.0001    0.0301    0.0000
          33   -0.0071    0.0005   -0.0004   -0.0269   -0.0003   -0.0359    0.0006   -0.0126
          34   -0.0430    0.0003    0.0152   -0.0120    0.0274   -0.0134    0.0256    0.0131
          35   -0.0225   -0.0203   -0.0040    0.0188    0.0058    0.0150   -0.0064    0.0108
          36   -0.0079   -0.0123    0.0002   -0.0099    0.0001   -0.0219   -0.0040   -0.0113
          37   -0.0804    0.0006   -0.0057   -0.0199    0.1250   -0.0310    0.0027   -0.0280
          38   -0.0428   -0.0425   -0.0161    0.0426    0.0580    0.0366   -0.0385    0.0123
          39   -0.0085   -0.0050    0.0001   -0.0193    0.0020   -0.0323    0.0015   -0.0195
          40   -0.0249    0.0031    0.0838   -0.0093   -0.0369   -0.0084    0.0035    0.0307
          41   -0.0131   -0.0100    0.0341    0.0092   -0.0300    0.0081   -0.0202    0.0188
          42   -0.0059   -0.0348    0.0002    0.0188   -0.0004    0.0053   -0.0007   -0.0038
          43    0.0246   -0.0015    0.0838    0.0088   -0.0370    0.0082    0.0034   -0.0308
          44    0.0130    0.0108    0.0341   -0.0096   -0.0300   -0.0083   -0.0202   -0.0188
          45   -0.0054   -0.0347    0.0011    0.0188   -0.0006    0.0053    0.0005   -0.0044
          46   -0.0511    0.0068    0.1256   -0.0201   -0.0774   -0.0181   -0.0121    0.0715
          47   -0.0268   -0.0203    0.0569    0.0185   -0.0521    0.0162   -0.0264    0.0435
          48   -0.0048   -0.0479   -0.0007    0.0349    0.0004    0.0196    0.0022   -0.0020
          49    0.0431    0.0001    0.0151    0.0121    0.0272    0.0136    0.0254   -0.0130
          50    0.0225    0.0204   -0.0040   -0.0188    0.0058   -0.0149   -0.0065   -0.0108
          51   -0.0071   -0.0122   -0.0002   -0.0099    0.0001   -0.0218    0.0042   -0.0116
          52    0.0506   -0.0046    0.1255    0.0194   -0.0777    0.0176   -0.0122   -0.0716
          53    0.0266    0.0214    0.0568   -0.0190   -0.0522   -0.0166   -0.0265   -0.0436
          54   -0.0039   -0.0477    0.0028    0.0350   -0.0022    0.0197   -0.0026   -0.0034
          55    0.0804   -0.0004   -0.0057    0.0201    0.1247    0.0314    0.0025    0.0283
          56    0.0429    0.0425   -0.0161   -0.0426    0.0579   -0.0364   -0.0387   -0.0122
          57   -0.0070   -0.0047   -0.0005   -0.0194    0.0000   -0.0321   -0.0018   -0.0192
          58   -0.0002   -0.0004   -0.0394    0.0000   -0.0419   -0.0001   -0.0022   -0.0001
          59   -0.0002   -0.0001    0.0134    0.0001    0.0007    0.0000    0.0105    0.0000
          60    0.0382    0.0298   -0.0001   -0.0077   -0.0001    0.0124    0.0001    0.0129
          61   -0.0004    0.0006   -0.0375    0.0004   -0.0405   -0.0004    0.0017    0.0001
          62   -0.0004    0.0006    0.0378    0.0004    0.0239   -0.0001    0.0754    0.0001
          63    0.0680   -0.1218    0.0005   -0.0574    0.0001    0.0565    0.0005   -0.0145
          64    0.0000   -0.0019   -0.0607   -0.0002   -0.0622   -0.0003   -0.0572    0.0001
          65   -0.0001   -0.0010    0.0036    0.0000   -0.0084   -0.0001   -0.0153    0.0001
          66    0.0209    0.2198   -0.0007    0.0239   -0.0004    0.0290   -0.0004   -0.0096


   Root No.       9        10        11        12        13        14        15        16

                 6 A"      4 A'      5 A'      6 A'      7 A"      8 A"      7 A'      9 A"  

                 256.0     256.5     355.4     394.7     396.6     449.0     460.8     521.7
  
           1   -0.0002    0.0288   -0.0368   -0.0018   -0.0007    0.0000    0.0030   -0.0002
           2    0.0008   -0.0505   -0.0083    0.0121   -0.0004    0.0000    0.0040   -0.0001
           3   -0.0290   -0.0008   -0.0002    0.0001    0.0948    0.0036    0.0000    0.0317
           4   -0.0002    0.0240   -0.0257    0.0017   -0.0002   -0.0004    0.0097    0.0000
           5    0.0002   -0.0071   -0.0034   -0.0455   -0.0001   -0.0003    0.0213    0.0000
           6   -0.0204   -0.0005   -0.0002    0.0000    0.0324    0.0603    0.0002    0.0039
           7   -0.0003    0.0374   -0.0059   -0.0190    0.0004   -0.0001   -0.0223   -0.0002
           8    0.0004   -0.0146   -0.0124   -0.0381    0.0003   -0.0001    0.0501   -0.0001
           9   -0.0365   -0.0011   -0.0002    0.0001   -0.0611    0.0188    0.0000    0.0211
          10   -0.0006    0.0348    0.0387   -0.0295   -0.0003    0.0004    0.0032    0.0001
          11    0.0002   -0.0214    0.0073   -0.0437   -0.0002    0.0002    0.0745    0.0001
          12    0.0112    0.0002    0.0003    0.0001    0.0483   -0.0508    0.0003   -0.0227
          13   -0.0007    0.0341    0.0409   -0.0294    0.0001   -0.0004    0.0062   -0.0002
          14    0.0005   -0.0473    0.0141   -0.0068    0.0001   -0.0002    0.0596   -0.0001
          15    0.0299    0.0007    0.0004    0.0001   -0.0139    0.0606    0.0002    0.0260
          16   -0.0004    0.0350    0.0157   -0.0256    0.0003    0.0003    0.0383    0.0001
          17    0.0007   -0.0474    0.0229   -0.0018    0.0002    0.0002    0.0305    0.0001
          18   -0.0197   -0.0006    0.0003   -0.0002   -0.0404   -0.0445    0.0003   -0.0245
          19   -0.0001    0.0373   -0.0035   -0.0187    0.0014   -0.0001   -0.0213   -0.0003
          20    0.0006   -0.0235   -0.0444   -0.0206    0.0008   -0.0001    0.0568   -0.0001
          21   -0.0662   -0.0021   -0.0003    0.0002   -0.1932    0.0110    0.0001    0.0353
          22   -0.0006    0.0216    0.0581   -0.0190   -0.0009    0.0013    0.0156    0.0006
          23    0.0001   -0.0140   -0.0051   -0.0486   -0.0005    0.0007    0.0656    0.0004
          24    0.0343    0.0006    0.0003    0.0004    0.1324   -0.1802    0.0003   -0.0942
          25   -0.0009    0.0237    0.0500   -0.0131    0.0005   -0.0011   -0.0203   -0.0005
          26    0.0004   -0.0528    0.0197    0.0010    0.0003   -0.0007    0.0442   -0.0003
          27    0.0767    0.0019    0.0005    0.0002   -0.0602    0.1663   -0.0001    0.0643
          28   -0.0002    0.0334    0.0164   -0.0257    0.0012    0.0011    0.0369    0.0007
          29    0.0007   -0.0421    0.0601   -0.0180    0.0007    0.0007    0.0331    0.0004
          30   -0.0400   -0.0011    0.0005   -0.0004   -0.1667   -0.1568    0.0003   -0.1095
          31   -0.0005    0.0314    0.1070    0.0583    0.0000   -0.0001   -0.0219    0.0002
          32   -0.0002    0.0139    0.0738   -0.0197    0.0000   -0.0001   -0.0191    0.0002
          33    0.0071    0.0005    0.0010    0.0004    0.0025    0.0150   -0.0002   -0.0340
          34    0.0284   -0.0010    0.0358    0.0319    0.0020    0.0093    0.0049   -0.0197
          35    0.0147    0.0275    0.0259   -0.0292   -0.0043   -0.0172   -0.0320    0.0405
          36    0.0077    0.0109   -0.0036   -0.0049   -0.0008    0.0056   -0.0224   -0.0344
          37   -0.0243   -0.0482   -0.0049   -0.0346   -0.0048   -0.0130   -0.0066    0.0189
          38   -0.0266    0.0719   -0.0237    0.0555    0.0092    0.0241    0.0201   -0.0369
          39    0.0110   -0.0123    0.0044   -0.0462   -0.0066   -0.0128   -0.0442    0.0017
          40    0.0616   -0.0149   -0.0115    0.0224    0.0013    0.0056    0.0247   -0.0148
          41    0.0332    0.0245   -0.0003   -0.0464   -0.0030   -0.0124   -0.0406    0.0284
          42    0.0016    0.0021   -0.0008    0.0020   -0.0033   -0.0130    0.0000    0.0305
          43   -0.0611   -0.0186   -0.0115    0.0226   -0.0013   -0.0054    0.0247    0.0144
          44   -0.0339    0.0224   -0.0003   -0.0461    0.0030    0.0125   -0.0406   -0.0287
          45    0.0006   -0.0019    0.0004   -0.0022   -0.0033   -0.0130    0.0003    0.0305
          46    0.1439   -0.0186   -0.0516    0.0117    0.0028    0.0119    0.0331   -0.0366
          47    0.0780    0.0149   -0.0204   -0.0529   -0.0060   -0.0265   -0.0249    0.0631
          48    0.0002   -0.0056    0.0016    0.0013   -0.0075   -0.0320    0.0112    0.0805
          49   -0.0284   -0.0027    0.0356    0.0321   -0.0020   -0.0094    0.0047    0.0202
          50   -0.0154    0.0265    0.0259   -0.0289    0.0043    0.0171   -0.0323   -0.0401
          51    0.0075   -0.0102    0.0042    0.0051   -0.0007    0.0056    0.0223   -0.0345
          52   -0.1432   -0.0274   -0.0516    0.0121   -0.0027   -0.0115    0.0333    0.0356
          53   -0.0783    0.0100   -0.0204   -0.0525    0.0061    0.0267   -0.0248   -0.0637
          54   -0.0026    0.0055   -0.0028   -0.0018   -0.0075   -0.0320   -0.0107    0.0805
          55    0.0255   -0.0472   -0.0051   -0.0347    0.0049    0.0131   -0.0071   -0.0189
          56    0.0246    0.0729   -0.0237    0.0557   -0.0092   -0.0241    0.0197    0.0369
          57    0.0112    0.0129   -0.0048    0.0462   -0.0066   -0.0128    0.0444    0.0017
          58    0.0000    0.0023   -0.0633   -0.0124   -0.0003    0.0000   -0.0022   -0.0001
          59    0.0006   -0.0397   -0.0057    0.0401   -0.0002    0.0000   -0.0193   -0.0001
          60   -0.0075   -0.0002   -0.0004   -0.0002    0.0433   -0.0028   -0.0001    0.0174
          61   -0.0001    0.0059   -0.0699   -0.0132    0.0002    0.0000   -0.0067    0.0000
          62   -0.0004    0.0219   -0.0800    0.0191    0.0001    0.0000   -0.0461    0.0000
          63    0.0082    0.0006   -0.0006   -0.0005   -0.0238    0.0029   -0.0003   -0.0063
          64    0.0008   -0.0621   -0.0160    0.0416    0.0001    0.0000   -0.0362    0.0001
          65    0.0010   -0.0716    0.0148    0.0700    0.0001    0.0000   -0.0404    0.0000
          66    0.0052   -0.0004    0.0000    0.0002   -0.0232    0.0013   -0.0004   -0.0069


   Root No.      17        18        19        20        21        22        23        24

                 8 A'      9 A'     10 A'     10 A"     11 A'     11 A"     12 A"     13 A"  

                 537.7     567.7     587.3     636.7     653.8     653.8     667.1     748.8
  
           1    0.0316   -0.0149   -0.0324    0.0001   -0.0152    0.0005    0.0000    0.0006
           2   -0.0162   -0.0015    0.0125    0.0000   -0.0694    0.0019    0.0000    0.0004
           3    0.0002   -0.0001   -0.0002   -0.0195   -0.0009   -0.0142    0.0020   -0.0832
           4    0.0448   -0.0244   -0.0334   -0.0005   -0.0374    0.0003    0.0000   -0.0005
           5    0.0217   -0.0280    0.0500   -0.0003   -0.0138   -0.0001    0.0000   -0.0003
           6    0.0004   -0.0003    0.0000    0.0638    0.0028    0.0992    0.0035    0.0763
           7    0.0405   -0.0417    0.0476    0.0000   -0.0717    0.0021    0.0000    0.0001
           8    0.0323   -0.0228    0.0029    0.0001    0.0082   -0.0002    0.0000    0.0001
           9    0.0004   -0.0004    0.0005   -0.0158   -0.0008   -0.0162    0.0003   -0.0102
          10   -0.0013   -0.0008    0.0242   -0.0002    0.0228   -0.0006    0.0000    0.0001
          11    0.0134   -0.0027   -0.0235    0.0000    0.0622   -0.0017    0.0000    0.0000
          12    0.0001   -0.0001    0.0003    0.0131    0.0011    0.0182    0.0001   -0.0033
          13    0.0000    0.0004    0.0163    0.0000    0.0315   -0.0007    0.0000    0.0002
          14   -0.0389    0.0325   -0.0534    0.0000   -0.0227    0.0007    0.0000    0.0001
          15   -0.0001    0.0001    0.0000   -0.0098   -0.0002   -0.0098    0.0000   -0.0211
          16    0.0169    0.0077   -0.0638   -0.0002    0.0648   -0.0018    0.0000    0.0001
          17   -0.0446    0.0250   -0.0025   -0.0001   -0.0475    0.0012    0.0000    0.0001
          18    0.0000    0.0001   -0.0005    0.0119    0.0006    0.0161   -0.0003   -0.0136
          19    0.0387   -0.0392    0.0457    0.0008   -0.0683    0.0032    0.0000    0.0003
          20    0.0568   -0.0381   -0.0346    0.0006   -0.0319    0.0016    0.0000    0.0002
          21    0.0005   -0.0005    0.0004   -0.1226   -0.0063   -0.1866   -0.0018   -0.0397
          22   -0.0422    0.0354   -0.0142   -0.0002    0.0385   -0.0009    0.0000   -0.0007
          23    0.0372   -0.0244   -0.0002    0.0000    0.0461   -0.0012    0.0000   -0.0004
          24   -0.0001    0.0001    0.0002    0.0140    0.0005   -0.0050    0.0009    0.1044
          25   -0.0299    0.0105    0.0500    0.0002   -0.0399    0.0018    0.0000   -0.0010
          26   -0.0547    0.0366   -0.0300    0.0002   -0.0627    0.0021    0.0000   -0.0006
          27   -0.0003    0.0001    0.0003   -0.0543   -0.0034   -0.0890   -0.0013    0.1508
          28    0.0147    0.0079   -0.0590   -0.0003    0.0607   -0.0017    0.0000   -0.0016
          29   -0.0576    0.0310    0.0280   -0.0003   -0.0210    0.0006    0.0000   -0.0009
          30   -0.0001    0.0002   -0.0004    0.0344    0.0006    0.0178   -0.0038    0.2241
          31    0.0055    0.0663   -0.0058    0.0001   -0.0217    0.0005    0.0000   -0.0001
          32   -0.0008    0.0282    0.0621    0.0001    0.0052   -0.0002    0.0000   -0.0001
          33    0.0000    0.0006    0.0003   -0.0189    0.0004    0.0125    0.0003    0.0112
          34   -0.0473   -0.0622   -0.0207    0.0292   -0.0002   -0.0244   -0.1270   -0.0063
          35   -0.0256   -0.0354   -0.0007   -0.0288    0.0115    0.0384   -0.0733    0.0075
          36    0.0021    0.0091   -0.0611   -0.0253   -0.0194   -0.0088   -0.0066   -0.0126
          37    0.0137    0.0183    0.0145    0.0084    0.0014   -0.0025    0.0351    0.0014
          38    0.0086    0.0130   -0.0129   -0.0210   -0.0067    0.0054    0.0159   -0.0007
          39    0.0033    0.0097   -0.0588   -0.0412   -0.0154    0.0164   -0.0052   -0.0055
          40    0.0036    0.0002    0.0069    0.0176   -0.0020   -0.0208    0.0407   -0.0044
          41    0.0036    0.0045   -0.0116   -0.0371    0.0050    0.0389    0.0153    0.0095
          42    0.0002    0.0007   -0.0036    0.0768   -0.0023   -0.0392    0.0111    0.0001
          43    0.0035    0.0002    0.0070   -0.0185   -0.0005    0.0213   -0.0408    0.0044
          44    0.0036    0.0045   -0.0116    0.0366    0.0025   -0.0389   -0.0154   -0.0095
          45   -0.0003   -0.0006    0.0037    0.0768    0.0001   -0.0393    0.0104    0.0001
          46    0.0943    0.1430    0.0287    0.0097   -0.0280   -0.0337    0.2267   -0.0092
          47    0.0522    0.0771    0.0372   -0.0392    0.0038    0.0564    0.1204    0.0206
          48   -0.0021   -0.0063    0.0327    0.0774    0.0106   -0.0118    0.0112    0.0149
          49   -0.0473   -0.0621   -0.0213   -0.0288    0.0012    0.0244    0.1271    0.0065
          50   -0.0255   -0.0353   -0.0010    0.0291    0.0089   -0.0390    0.0734   -0.0075
          51   -0.0030   -0.0103    0.0608   -0.0255    0.0191   -0.0098   -0.0042   -0.0126
          52    0.0942    0.1428    0.0294   -0.0105   -0.0254    0.0351   -0.2268    0.0090
          53    0.0523    0.0770    0.0376    0.0388    0.0004   -0.0565   -0.1204   -0.0208
          54    0.0037    0.0091   -0.0319    0.0776   -0.0113   -0.0112    0.0070    0.0149
          55    0.0136    0.0184    0.0140   -0.0077    0.0018    0.0021   -0.0350   -0.0013
          56    0.0087    0.0129   -0.0131    0.0214   -0.0070   -0.0053   -0.0159    0.0007
          57   -0.0031   -0.0093    0.0590   -0.0412    0.0166    0.0155   -0.0058   -0.0056
          58   -0.0368    0.0127    0.0081    0.0004   -0.0320    0.0014    0.0000   -0.0007
          59    0.0229   -0.0135   -0.0100    0.0001   -0.0361    0.0014    0.0000   -0.0004
          60   -0.0001    0.0001   -0.0002   -0.0509   -0.0032   -0.0834   -0.0070    0.0935
          61   -0.0454    0.0206    0.0132   -0.0001   -0.0183    0.0003    0.0000    0.0002
          62   -0.0307    0.0200    0.0206   -0.0002    0.0643   -0.0017    0.0000    0.0001
          63   -0.0004    0.0003   -0.0001    0.0162    0.0006    0.0262    0.0026   -0.0249
          64    0.0010    0.0031    0.0034   -0.0001    0.0712   -0.0021    0.0000    0.0002
          65    0.0460   -0.0243   -0.0132   -0.0001    0.0218   -0.0006    0.0000    0.0001
          66    0.0002    0.0000   -0.0002    0.0156    0.0012    0.0249    0.0012   -0.0251


   Root No.      25        26        27        28        29        30        31        32

                12 A'     14 A"     13 A'     14 A'     15 A"     16 A"     17 A"     18 A"  

                 759.6     800.7     842.5     871.2     893.0     949.0     950.6     982.0
  
           1    0.0384   -0.0003    0.0195   -0.0001    0.0002    0.0000   -0.0001    0.0000
           2   -0.0132   -0.0002    0.0101   -0.0002    0.0001    0.0000   -0.0001    0.0000
           3    0.0001    0.0474    0.0002    0.0000   -0.0218   -0.0060    0.0174    0.0040
           4    0.0209    0.0000   -0.0130    0.0000   -0.0002    0.0000   -0.0001    0.0001
           5   -0.0241    0.0000   -0.0394    0.0001   -0.0001    0.0000    0.0000    0.0000
           6    0.0002    0.0063   -0.0002    0.0000    0.0265    0.0000    0.0072   -0.0083
           7    0.0003    0.0001   -0.0920   -0.0008    0.0003   -0.0001    0.0002   -0.0003
           8   -0.0381    0.0001   -0.0147   -0.0009    0.0002    0.0000    0.0001   -0.0002
           9    0.0001   -0.0157   -0.0006    0.0000   -0.0471    0.0092   -0.0312    0.0467
          10   -0.0409    0.0002    0.0294   -0.0004    0.0002    0.0000   -0.0001    0.0005
          11   -0.0581    0.0001    0.0477    0.0000    0.0001    0.0000   -0.0001    0.0003
          12   -0.0003   -0.0265    0.0006    0.0000   -0.0221   -0.0064    0.0166   -0.0735
          13   -0.0324    0.0002    0.0353    0.0003   -0.0002    0.0001   -0.0003   -0.0004
          14    0.0570    0.0001   -0.0694    0.0000   -0.0001    0.0000   -0.0002   -0.0002
          15    0.0001   -0.0301    0.0001    0.0000    0.0220   -0.0116    0.0393    0.0526
          16    0.0740    0.0002   -0.0093    0.0014   -0.0003   -0.0001    0.0004    0.0002
          17   -0.0030    0.0001   -0.0315   -0.0011   -0.0001   -0.0001    0.0002    0.0001
          18    0.0005   -0.0225   -0.0001    0.0000    0.0363    0.0177   -0.0559   -0.0228
          19    0.0004   -0.0011   -0.0850   -0.0009   -0.0019    0.0003   -0.0010    0.0012
          20    0.0038   -0.0007   -0.0601    0.0007   -0.0011    0.0002   -0.0006    0.0007
          21    0.0003    0.1563   -0.0007    0.0000    0.2674   -0.0441    0.1487   -0.1774
          22    0.0099   -0.0016    0.0432    0.0009   -0.0010   -0.0002    0.0007   -0.0021
          23   -0.0829   -0.0009    0.0323   -0.0009   -0.0006   -0.0001    0.0004   -0.0013
          24    0.0002    0.2229    0.0007    0.0000    0.1494    0.0354   -0.0936    0.3016
          25   -0.0386   -0.0019   -0.0116   -0.0016    0.0010   -0.0003    0.0012    0.0013
          26    0.0456   -0.0011   -0.0899   -0.0011    0.0006   -0.0002    0.0007    0.0008
          27    0.0001    0.2753   -0.0003    0.0000   -0.1368    0.0494   -0.1665   -0.1841
          28    0.0675   -0.0008   -0.0090    0.0013    0.0013    0.0005   -0.0017   -0.0005
          29   -0.0610   -0.0005   -0.0262   -0.0015    0.0008    0.0003   -0.0010   -0.0003
          30    0.0002    0.1164   -0.0001    0.0000   -0.1890   -0.0770    0.2432    0.0726
          31   -0.0112    0.0000    0.0021   -0.0167   -0.0001    0.0000    0.0000    0.0001
          32    0.0110    0.0000   -0.0008   -0.0092   -0.0001    0.0000    0.0000    0.0000
          33    0.0000    0.0026    0.0000   -0.0002    0.0124   -0.0060    0.0043   -0.0074
          34   -0.0129    0.0005   -0.0024    0.0455   -0.0005    0.0154    0.0037   -0.0015
          35    0.0218    0.0015    0.0039    0.0252    0.0013    0.0130    0.0030    0.0020
          36   -0.0433   -0.0021   -0.0124   -0.0007   -0.0058    0.0008   -0.0019    0.0015
          37    0.0097   -0.0001    0.0039   -0.0076    0.0002   -0.0034   -0.0006   -0.0001
          38   -0.0168   -0.0003   -0.0063   -0.0051   -0.0002   -0.0017   -0.0005    0.0002
          39   -0.0374   -0.0013   -0.0148   -0.0012   -0.0043    0.0026   -0.0012    0.0028
          40   -0.0158   -0.0006   -0.0089   -0.0530   -0.0016   -0.0564   -0.0136    0.0028
          41    0.0309    0.0010    0.0164   -0.0270    0.0039   -0.0339   -0.0064   -0.0032
          42   -0.0030    0.0001   -0.0012    0.0001    0.0006   -0.0004    0.0000    0.0000
          43   -0.0157    0.0006   -0.0089   -0.0530    0.0016    0.0564    0.0136   -0.0028
          44    0.0310   -0.0010    0.0165   -0.0270   -0.0039    0.0339    0.0064    0.0032
          45    0.0031    0.0001    0.0010   -0.0011    0.0006    0.0006    0.0002    0.0000
          46   -0.0342   -0.0030   -0.0129    0.3184   -0.0077    0.2468    0.0538    0.0014
          47    0.0492    0.0015    0.0202    0.1740    0.0087    0.1249    0.0326   -0.0115
          48    0.0248    0.0021    0.0054   -0.0073    0.0095   -0.0126    0.0012   -0.0086
          49   -0.0133   -0.0005   -0.0026    0.0455    0.0006   -0.0154   -0.0037    0.0015
          50    0.0216   -0.0015    0.0039    0.0252   -0.0012   -0.0130   -0.0030   -0.0020
          51    0.0433   -0.0021    0.0124    0.0015   -0.0058    0.0005   -0.0019    0.0015
          52   -0.0336    0.0030   -0.0128    0.3182    0.0076   -0.2466   -0.0538   -0.0013
          53    0.0496   -0.0016    0.0204    0.1739   -0.0088   -0.1248   -0.0326    0.0116
          54   -0.0248    0.0022   -0.0057    0.0132    0.0096   -0.0171    0.0002   -0.0086
          55    0.0096    0.0001    0.0038   -0.0076   -0.0002    0.0034    0.0007    0.0001
          56   -0.0168    0.0003   -0.0061   -0.0051    0.0002    0.0016    0.0005   -0.0002
          57    0.0375   -0.0013    0.0147    0.0011   -0.0043    0.0027   -0.0012    0.0028
          58    0.0009    0.0003    0.0578    0.0006   -0.0001    0.0000    0.0000    0.0000
          59    0.0129    0.0002    0.0874   -0.0008    0.0000    0.0000    0.0000    0.0000
          60   -0.0001   -0.0396    0.0007    0.0000    0.0072    0.0017   -0.0048    0.0001
          61   -0.0008   -0.0001    0.0517   -0.0006    0.0000    0.0000    0.0000    0.0000
          62   -0.0153    0.0000   -0.0494    0.0000    0.0000    0.0000    0.0000    0.0000
          63   -0.0004    0.0100    0.0001    0.0000   -0.0014   -0.0003    0.0008   -0.0001
          64   -0.0097   -0.0001   -0.0666    0.0008    0.0000    0.0000    0.0000    0.0000
          65    0.0083    0.0000    0.0350    0.0015    0.0000    0.0000    0.0000    0.0000
          66   -0.0003    0.0101   -0.0004    0.0000   -0.0018   -0.0003    0.0013    0.0000


   Root No.      33        34        35        36        37        38        39        40

                15 A'     19 A"     16 A'     20 A"     17 A'     18 A'     19 A'     20 A'  

                 992.5    1007.4    1056.4    1083.6    1125.1    1145.5    1159.1    1202.1
  
           1    0.0130    0.0000    0.0151   -0.0001   -0.0344    0.0172    0.0472   -0.0140
           2    0.0298    0.0000    0.0222    0.0000    0.0157    0.0235    0.0041   -0.0388
           3    0.0002    0.0041    0.0002    0.0136   -0.0002    0.0002    0.0003   -0.0002
           4    0.0513    0.0001    0.0337    0.0004    0.0365    0.0172   -0.0001   -0.0108
           5   -0.0414    0.0001   -0.0211    0.0003    0.0209    0.0091   -0.0119    0.0226
           6    0.0002   -0.0183    0.0001   -0.0628    0.0003    0.0002    0.0000    0.0000
           7   -0.0080   -0.0001   -0.0155   -0.0001   -0.0180   -0.0061   -0.0414   -0.0044
           8    0.0056    0.0000   -0.0079   -0.0001   -0.0279   -0.0204    0.0279    0.0198
           9    0.0000    0.0104   -0.0002    0.0237   -0.0002   -0.0001   -0.0002    0.0000
          10    0.0113    0.0000    0.0002    0.0000   -0.0491    0.0125    0.0084    0.0050
          11    0.0300    0.0000    0.0113    0.0000   -0.0080    0.0196   -0.0329   -0.0127
          12    0.0002   -0.0045    0.0000    0.0012   -0.0004    0.0001   -0.0001    0.0000
          13    0.0127    0.0000    0.0128    0.0000    0.0490   -0.0051    0.0043   -0.0059
          14   -0.0048    0.0000   -0.0019    0.0000   -0.0050    0.0212   -0.0243    0.0055
          15    0.0001    0.0019    0.0000   -0.0012    0.0003    0.0000   -0.0001    0.0000
          16   -0.0558    0.0000   -0.0254    0.0000    0.0099   -0.0265   -0.0019   -0.0087
          17    0.0153    0.0000    0.0004    0.0000   -0.0280   -0.0213    0.0231   -0.0042
          18   -0.0004   -0.0013   -0.0002    0.0016   -0.0001   -0.0003    0.0000   -0.0001
          19   -0.0070    0.0003   -0.0136    0.0006   -0.0183   -0.0021   -0.0396   -0.0038
          20    0.0682    0.0002    0.0542    0.0003    0.2142   -0.0642    0.1103    0.1520
          21    0.0003   -0.0408    0.0001   -0.0831    0.0008   -0.0003    0.0002    0.0006
          22    0.0104   -0.0001    0.0341    0.0002    0.0589    0.2249   -0.0409    0.1969
          23    0.0284    0.0000   -0.0092    0.0001   -0.0682   -0.1066   -0.0017   -0.1206
          24    0.0003    0.0127    0.0001   -0.0152    0.0002    0.0011   -0.0003    0.0009
          25    0.0469    0.0000    0.0292    0.0000   -0.0058   -0.0768    0.2371    0.0963
          26    0.0178    0.0000    0.0088    0.0000   -0.0335   -0.0247    0.1080    0.0591
          27    0.0004   -0.0047    0.0002    0.0006   -0.0002   -0.0007    0.0021    0.0009
          28   -0.0499    0.0000   -0.0224    0.0001    0.0120   -0.0268    0.0009   -0.0093
          29    0.0394    0.0000    0.0125    0.0001    0.2057   -0.1710   -0.0685   -0.0722
          30   -0.0003    0.0025   -0.0001   -0.0044    0.0009   -0.0009   -0.0003   -0.0003
          31    0.0256   -0.0003    0.0086   -0.0018   -0.0042   -0.0060   -0.0125   -0.0041
          32   -0.0504   -0.0001   -0.0177   -0.0011    0.0076    0.0110    0.0158    0.0046
          33    0.0000    0.0370    0.0000    0.2533    0.0000    0.0000    0.0000    0.0000
          34    0.0116    0.0385   -0.0135   -0.0226   -0.0049   -0.0080   -0.0098    0.0154
          35   -0.0227   -0.0676    0.0252    0.0554    0.0078    0.0140    0.0172   -0.0285
          36   -0.0084    0.0177   -0.0087   -0.0815   -0.0034   -0.0056   -0.0061    0.0130
          37    0.0062    0.0024   -0.0005   -0.0002   -0.0003   -0.0003   -0.0003   -0.0003
          38   -0.0101   -0.0036    0.0006    0.0010    0.0006    0.0005    0.0004    0.0008
          39   -0.0320   -0.0302    0.0078   -0.0443    0.0028    0.0039    0.0044   -0.0036
          40   -0.0338   -0.0445    0.0112    0.0158    0.0039    0.0061    0.0076   -0.0073
          41    0.0629    0.0703   -0.0214   -0.0379   -0.0063   -0.0104   -0.0136    0.0132
          42   -0.0018   -0.0054    0.0030    0.0037   -0.0008   -0.0011   -0.0015    0.0011
          43   -0.0337    0.0446    0.0112   -0.0160    0.0039    0.0061    0.0076   -0.0073
          44    0.0628   -0.0702   -0.0214    0.0378   -0.0063   -0.0105   -0.0136    0.0132
          45    0.0020   -0.0053   -0.0030    0.0038    0.0008    0.0011    0.0015   -0.0012
          46   -0.0030   -0.0689   -0.0725   -0.0060    0.0248    0.0302    0.0332   -0.0294
          47   -0.0038    0.1772    0.1421    0.0304   -0.0473   -0.0562   -0.0608    0.0538
          48   -0.0862    0.1400    0.2167    0.0737   -0.0570   -0.0648   -0.0673    0.0611
          49    0.0116   -0.0387   -0.0137    0.0237   -0.0049   -0.0081   -0.0098    0.0155
          50   -0.0227    0.0675    0.0251   -0.0548    0.0078    0.0139    0.0171   -0.0284
          51    0.0085    0.0177    0.0088   -0.0816    0.0034    0.0056    0.0061   -0.0130
          52   -0.0041    0.0670   -0.0695    0.0049    0.0240    0.0293    0.0323   -0.0285
          53   -0.0045   -0.1783    0.1439   -0.0311   -0.0478   -0.0568   -0.0613    0.0543
          54    0.0863    0.1395   -0.2164    0.0736    0.0569    0.0648    0.0674   -0.0611
          55    0.0059   -0.0019   -0.0005    0.0008   -0.0002   -0.0002   -0.0002   -0.0005
          56   -0.0104    0.0039    0.0006   -0.0006    0.0006    0.0005    0.0004    0.0008
          57    0.0321   -0.0302   -0.0078   -0.0443   -0.0028   -0.0039   -0.0043    0.0035
          58   -0.0175    0.0000   -0.0087    0.0000    0.0025   -0.0035   -0.0081    0.0076
          59   -0.0260    0.0000   -0.0112    0.0000    0.0002   -0.0082   -0.0062    0.0068
          60   -0.0003   -0.0014   -0.0001   -0.0038    0.0000    0.0000   -0.0001    0.0001
          61   -0.0221    0.0000   -0.0108    0.0000    0.0031   -0.0095   -0.0097    0.0052
          62    0.0103    0.0000    0.0033    0.0000    0.0013    0.0016   -0.0005   -0.0011
          63   -0.0003    0.0002    0.0000    0.0003    0.0000    0.0000   -0.0001    0.0001
          64    0.0182    0.0000    0.0071    0.0000   -0.0012    0.0030    0.0051   -0.0046
          65   -0.0184    0.0000   -0.0093    0.0000   -0.0016   -0.0039   -0.0052    0.0102
          66    0.0000    0.0006    0.0001    0.0018    0.0000    0.0000    0.0000    0.0000


   Root No.      41        42        43        44        45        46        47        48

                21 A"     21 A'     22 A'     23 A'     24 A'     25 A'     26 A'     27 A'  

                1219.3    1249.9    1260.3    1273.1    1395.0    1424.8    1463.1    1519.2
  
           1    0.0000   -0.0411    0.0093   -0.0305    0.0252    0.0397    0.0143    0.0620
           2    0.0000   -0.0339    0.0701    0.0234   -0.0459    0.0443   -0.0572    0.0122
           3   -0.0009   -0.0004    0.0003   -0.0001    0.0000    0.0005   -0.0001    0.0005
           4    0.0000    0.0239    0.0047   -0.0254    0.0444   -0.0283    0.0469   -0.0632
           5    0.0000    0.0114    0.0401   -0.0208   -0.0360   -0.0423    0.0429    0.1030
           6    0.0057    0.0002    0.0002   -0.0003    0.0002   -0.0004    0.0005    0.0000
           7    0.0000    0.0136   -0.0295    0.0163   -0.0075    0.0242   -0.0492   -0.0331
           8    0.0000   -0.0329   -0.0145   -0.0220   -0.0524   -0.0242    0.0159   -0.0520
           9   -0.0013    0.0000   -0.0003    0.0000   -0.0003    0.0000   -0.0003   -0.0004
          10    0.0000   -0.0201   -0.0315    0.0150    0.0392    0.0220    0.0169    0.0633
          11    0.0000    0.0339   -0.0138    0.0033    0.0120    0.0285   -0.0575   -0.0189
          12   -0.0003    0.0000   -0.0003    0.0001    0.0003    0.0003   -0.0001    0.0004
          13    0.0000    0.0146    0.0356    0.0203   -0.0088   -0.0329    0.0608   -0.0253
          14    0.0000    0.0370   -0.0108    0.0043    0.0342    0.0208    0.0425    0.0382
          15    0.0001    0.0003    0.0002    0.0001    0.0000   -0.0001    0.0007    0.0000
          16    0.0000   -0.0192    0.0256    0.0109   -0.0390   -0.0057   -0.0498   -0.0134
          17    0.0000   -0.0396   -0.0187    0.0116   -0.0042   -0.0599    0.0328   -0.0594
          18   -0.0002   -0.0003    0.0001    0.0001   -0.0003   -0.0002   -0.0001   -0.0004
          19    0.0000    0.0140   -0.0289    0.0107   -0.0035    0.0157   -0.0397   -0.0280
          20    0.0000   -0.0842   -0.1385    0.2870    0.0835    0.1011   -0.0583    0.1342
          21    0.0045   -0.0003   -0.0008    0.0012    0.0003    0.0004   -0.0005    0.0004
          22    0.0000   -0.1037   -0.0775   -0.1097   -0.1117   -0.0022   -0.1249   -0.0932
          23    0.0000    0.0833    0.0110    0.0756    0.0962    0.0340    0.0313    0.0672
          24    0.0016   -0.0004   -0.0005   -0.0005   -0.0004    0.0001   -0.0007   -0.0004
          25    0.0000    0.2415    0.0592   -0.0972   -0.0642    0.0745   -0.1764   -0.0182
          26    0.0000    0.1666    0.0020   -0.0611    0.0017    0.0708   -0.0925    0.0302
          27    0.0003    0.0024    0.0004   -0.0010   -0.0005    0.0009   -0.0015    0.0000
          28    0.0000   -0.0207    0.0252    0.0062   -0.0357    0.0009   -0.0393   -0.0088
          29    0.0000   -0.1235   -0.1355   -0.2817    0.0803    0.1414   -0.0638    0.1221
          30    0.0001   -0.0006   -0.0004   -0.0011    0.0000    0.0007   -0.0005    0.0004
          31    0.0002    0.0087   -0.0150    0.0051   -0.0537   -0.0207   -0.0017    0.0343
          32    0.0001   -0.0148    0.0291   -0.0028    0.0900    0.0411   -0.0042   -0.0571
          33   -0.0246    0.0000    0.0000    0.0000    0.0000    0.0000   -0.0001    0.0000
          34   -0.0020   -0.0058    0.0200   -0.0015    0.0138    0.0085   -0.0001   -0.0019
          35    0.0038    0.0107   -0.0368    0.0026   -0.0253   -0.0153   -0.0014    0.0030
          36    0.0078   -0.0060    0.0174   -0.0015    0.0158    0.0068   -0.0002   -0.0066
          37   -0.0031    0.0004   -0.0012    0.0001   -0.0015   -0.0011    0.0000    0.0002
          38    0.0050   -0.0006    0.0022   -0.0002    0.0026    0.0019    0.0001   -0.0003
          39    0.0154    0.0006   -0.0018    0.0001    0.0014    0.0014    0.0003    0.0009
          40    0.0331    0.0013   -0.0062    0.0001    0.0013   -0.0007   -0.0001   -0.0025
          41   -0.0621   -0.0019    0.0114   -0.0005   -0.0025    0.0007    0.0007    0.0047
          42   -0.0409    0.0000    0.0010    0.0001   -0.0023   -0.0006    0.0001    0.0036
          43   -0.0325    0.0013   -0.0062    0.0000    0.0012   -0.0008   -0.0001   -0.0024
          44    0.0624   -0.0019    0.0114   -0.0005   -0.0025    0.0007    0.0007    0.0048
          45   -0.0408    0.0000   -0.0009   -0.0001    0.0024    0.0004   -0.0003   -0.0036
          46   -0.1051    0.0059   -0.0236    0.0010   -0.0022   -0.0029   -0.0006   -0.0029
          47    0.1980   -0.0108    0.0424   -0.0023    0.0047    0.0054    0.0008    0.0046
          48    0.2985   -0.0146    0.0505   -0.0030    0.0171    0.0099    0.0005   -0.0013
          49    0.0018   -0.0059    0.0202   -0.0015    0.0141    0.0085   -0.0001   -0.0020
          50   -0.0038    0.0107   -0.0367    0.0026   -0.0252   -0.0153   -0.0014    0.0030
          51    0.0078    0.0060   -0.0174    0.0015   -0.0157   -0.0069    0.0001    0.0067
          52    0.1009    0.0057   -0.0229    0.0009   -0.0020   -0.0029   -0.0007   -0.0029
          53   -0.2005   -0.0109    0.0428   -0.0023    0.0048    0.0055    0.0009    0.0046
          54    0.2983    0.0146   -0.0504    0.0031   -0.0170   -0.0102   -0.0007    0.0013
          55    0.0029    0.0003   -0.0012    0.0001   -0.0015   -0.0013   -0.0001    0.0003
          56   -0.0051   -0.0006    0.0022   -0.0002    0.0026    0.0019    0.0002   -0.0002
          57    0.0154   -0.0006    0.0019   -0.0001   -0.0013   -0.0015   -0.0003   -0.0009
          58    0.0000    0.0108   -0.0030    0.0022    0.0298   -0.0589   -0.0222    0.0179
          59    0.0000    0.0060   -0.0134   -0.0027    0.0356   -0.0717   -0.0495    0.0119
          60    0.0003    0.0001   -0.0001    0.0000    0.0004   -0.0006   -0.0003    0.0001
          61    0.0000    0.0085   -0.0141    0.0046   -0.0419    0.0698    0.0381   -0.0291
          62    0.0000    0.0000    0.0026    0.0010    0.0039   -0.0078   -0.0043    0.0003
          63   -0.0001    0.0001   -0.0001    0.0001   -0.0003    0.0006    0.0003   -0.0003
          64    0.0000   -0.0072    0.0051   -0.0022    0.0167   -0.0290   -0.0228    0.0065
          65    0.0000    0.0126   -0.0109    0.0000   -0.0253    0.0548    0.0491   -0.0120
          66   -0.0001    0.0000    0.0000    0.0000    0.0000    0.0001    0.0000    0.0000


   Root No.      49        50        51        52        53        54        55        56

                28 A'     29 A'     30 A'     31 A'     22 A"     32 A'     33 A'     23 A"  

                1600.6    1608.5    1613.1    1736.2    1749.0    1862.7    2705.4    2710.3
  
           1    0.0396   -0.0638    0.1286    0.0032    0.0000    0.0100   -0.0002    0.0000
           2   -0.0080    0.0569   -0.0436   -0.0001    0.0000   -0.0018    0.0004    0.0000
           3    0.0002   -0.0002    0.0007    0.0000   -0.0008    0.0000    0.0000    0.0000
           4   -0.0351   -0.0070   -0.1359   -0.0050   -0.0001   -0.0090    0.0018    0.0000
           5   -0.0104   -0.0832   -0.0487    0.0070    0.0000    0.0161    0.0013    0.0000
           6   -0.0002   -0.0004   -0.0012    0.0000    0.0098    0.0001    0.0000   -0.0001
           7    0.0273   -0.0089    0.0644    0.0001    0.0000    0.0022    0.0197    0.0000
           8   -0.0377    0.1465    0.0290   -0.0028    0.0000   -0.0128   -0.0029    0.0000
           9    0.0002    0.0005    0.0006    0.0001   -0.0011    0.0001    0.0001    0.0000
          10   -0.0501    0.0545   -0.1299   -0.0014   -0.0001   -0.0051   -0.0201    0.0000
          11    0.0445   -0.0868    0.0268    0.0010    0.0000    0.0052   -0.0362    0.0000
          12    0.0000    0.0000   -0.0009    0.0002   -0.0007    0.0001   -0.0003    0.0000
          13    0.0016    0.0304    0.1472    0.0010   -0.0001    0.0035   -0.0063    0.0000
          14   -0.0374    0.0855    0.0576    0.0004    0.0000    0.0012    0.0056    0.0000
          15    0.0000    0.0005    0.0012    0.0001    0.0000    0.0001    0.0000    0.0000
          16    0.0072   -0.0090   -0.0696   -0.0005    0.0000   -0.0020    0.0008    0.0000
          17    0.0586   -0.1366   -0.0206   -0.0005    0.0000   -0.0002    0.0009    0.0000
          18    0.0003   -0.0007   -0.0006    0.0000   -0.0003   -0.0001    0.0000    0.0000
          19    0.0158   -0.0032    0.0311   -0.0010   -0.0001   -0.0058   -0.2689    0.0000
          20    0.0176   -0.0495   -0.0059    0.0034    0.0000    0.0102   -0.0039    0.0000
          21    0.0004   -0.0003    0.0002    0.0002    0.0028    0.0002   -0.0019    0.0000
          22    0.0462   -0.0437    0.0209   -0.0013   -0.0001   -0.0043    0.2718    0.0000
          23   -0.0171   -0.0077   -0.0421    0.0002    0.0000   -0.0027    0.4689    0.0000
          24    0.0005   -0.0004   -0.0001    0.0002    0.0009    0.0002    0.0038    0.0000
          25    0.0248   -0.0426   -0.0440    0.0001   -0.0001    0.0034    0.0525    0.0000
          26   -0.0078    0.0128   -0.0336   -0.0004    0.0000   -0.0033   -0.0954    0.0000
          27    0.0003   -0.0003   -0.0005    0.0001    0.0007    0.0001    0.0000    0.0000
          28    0.0069   -0.0061   -0.0411    0.0002    0.0000    0.0030   -0.0045    0.0000
          29    0.0556    0.0460   -0.0005    0.0004   -0.0001    0.0007    0.0008    0.0000
          30    0.0003    0.0001   -0.0004   -0.0001    0.0005   -0.0001    0.0000    0.0000
          31    0.0046   -0.0004    0.0022    0.0062    0.0000    0.0001    0.0000    0.0000
          32    0.0027    0.0024   -0.0018   -0.0099    0.0000   -0.0010    0.0002    0.0000
          33    0.0001    0.0000    0.0000    0.0001    0.0075    0.0000    0.0000   -0.0003
          34   -0.0053   -0.0054    0.0034   -0.0009   -0.0656   -0.0495    0.0000    0.0013
          35    0.0034    0.0085   -0.0043    0.0020    0.1132    0.0854    0.0000   -0.0023
          36    0.0026    0.0038   -0.0026    0.0186    0.2346    0.2283    0.0001   -0.0004
          37    0.0011    0.0012   -0.0008   -0.0016    0.0348    0.0278    0.0000    0.0000
          38   -0.0011   -0.0019    0.0011    0.0030   -0.0581   -0.0476    0.0000    0.0001
          39   -0.0024   -0.0045    0.0026   -0.0022   -0.1711   -0.1404    0.0000    0.0003
          40    0.0013    0.0017   -0.0014    0.0085    0.0087    0.0129    0.0000    0.0126
[...]
 T-DIPOLE    1.3089        C 15 --  H 18          +30.8% ( 66.3%)     1.6%
 TRAVEL      0.1091        C 14 --  C 15          +14.6% ( 45.6%)     0.0%
 RED. MASS   0.9215        C 15 --  C 17          +10.0% ( 37.8%)    95.0%
 EFF. MASS   4.6773        C 12 --  C 14          +10.0% ( 37.8%)    95.0%

 VIBRATION   42   21A'      ATOM PAIR        ENERGY CONTRIBUTION    RADIAL
 FREQ.      1249.89        C  5 --  H  9          +17.7% ( 56.9%)     9.7%
 T-DIPOLE    1.5395        C  5 --  C  6          +12.3% ( 47.3%)    98.6%
 TRAVEL      0.0898        C  1 --  C  2           +9.9% ( 42.4%)    67.3%
 RED. MASS   0.6024        C  3 --  C  4           +9.4% ( 41.5%)    99.7%
 EFF. MASS   6.6926

 VIBRATION   43   22A'      ATOM PAIR        ENERGY CONTRIBUTION    RADIAL
 FREQ.      1260.25        C  1 --  C  6          +13.6% ( 53.0%)    89.7%
 T-DIPOLE    3.0304        C  1 --  C  2          +11.1% ( 48.0%)     2.2%
 TRAVEL      0.0733        C  1 --  N 20          +10.1% ( 45.7%)    82.2%
 RED. MASS   1.0394        C  2 --  C  3           +7.3% ( 39.0%)    99.9%
 EFF. MASS   9.9544

 VIBRATION   44   23A'      ATOM PAIR        ENERGY CONTRIBUTION    RADIAL
 FREQ.      1273.06        C  3 --  H  7          +28.0% ( 59.8%)     1.5%
 T-DIPOLE    0.0772        C  6 --  H 10          +24.7% ( 56.1%)     0.8%
 TRAVEL      0.1379        C  1 --  C  2           +7.5% ( 31.0%)     1.3%
 RED. MASS   0.3494        C  1 --  C  6           +6.2% ( 28.1%)    50.1%
 EFF. MASS   2.7849

 VIBRATION   45   24A'      ATOM PAIR        ENERGY CONTRIBUTION    RADIAL
 FREQ.      1395.05        C  2 --  N 11          +19.1% ( 63.7%)    99.0%
 T-DIPOLE    3.4836        N 11 --  C 17          +13.6% ( 53.8%)    43.3%
 TRAVEL      0.0630        N 11 --  C 12          +13.6% ( 53.8%)    43.4%
 RED. MASS   2.0425        N 20 --  O 21           +5.6% ( 34.4%)    78.0%
 EFF. MASS  12.1647

 VIBRATION   46   25A'      ATOM PAIR        ENERGY CONTRIBUTION    RADIAL
 FREQ.      1424.75        N 20 --  O 21          +17.2% ( 58.5%)    74.2%
 T-DIPOLE    6.0076        N 20 --  O 22          +14.3% ( 53.5%)    60.7%
 TRAVEL      0.0611        C  1 --  N 20          +11.9% ( 48.8%)    98.5%
 RED. MASS   1.7197        O 21 --  O 22          +10.1% ( 44.9%)    99.9%
 EFF. MASS  12.6840

 VIBRATION   47   26A'      ATOM PAIR        ENERGY CONTRIBUTION    RADIAL
 FREQ.      1463.11        C  5 --  H  9          +10.0% ( 43.1%)     0.1%
 T-DIPOLE    1.9734        C  5 --  C  6           +9.4% ( 41.6%)    33.9%
 TRAVEL      0.0647        N 20 --  O 22           +9.2% ( 41.2%)    81.4%
 RED. MASS   1.1082        C  1 --  C  6           +9.1% ( 41.0%)    98.8%
 EFF. MASS  11.0251

 VIBRATION   48   27A'      ATOM PAIR        ENERGY CONTRIBUTION    RADIAL
 FREQ.      1519.18        C  2 --  N 11          +18.9% ( 62.2%)   100.0%
 T-DIPOLE    3.2364        C  1 --  C  2          +16.3% ( 57.8%)    65.5%
 TRAVEL      0.0629        C  2 --  C  3          +16.0% ( 57.3%)    56.8%
 RED. MASS   1.9600        C  4 --  C  5           +5.8% ( 34.5%)    71.2%
 EFF. MASS  11.2224

 VIBRATION   49   28A'      ATOM PAIR        ENERGY CONTRIBUTION    RADIAL
 FREQ.      1600.61        N 20 --  O 22          +33.8% ( 82.4%)    92.4%
 T-DIPOLE    9.3466        N 20 --  O 21          +31.2% ( 79.2%)    85.5%
 TRAVEL      0.0542        C  1 --  N 20          +19.3% ( 62.3%)     2.6%
 RED. MASS   5.5388        O 21 --  O 22           +5.9% ( 34.4%)     0.8%
 EFF. MASS  14.3497

 VIBRATION   50   29A'      ATOM PAIR        ENERGY CONTRIBUTION    RADIAL
 FREQ.      1608.48        C  3 --  C  4          +14.9% ( 54.2%)    93.5%
 T-DIPOLE    5.3009        C  5 --  C  6          +13.0% ( 50.6%)    87.7%
 TRAVEL      0.0587        C  2 --  C  3          +12.9% ( 50.5%)    74.2%
 RED. MASS   2.0275        C  1 --  C  6          +11.2% ( 47.0%)    94.7%
 EFF. MASS  12.1603

 VIBRATION   51   30A'      ATOM PAIR        ENERGY CONTRIBUTION    RADIAL
 FREQ.      1613.05        C  4 --  C  5          +17.2% ( 57.9%)    98.6%
 T-DIPOLE    4.3925        C  1 --  C  2          +15.5% ( 54.9%)   100.0%
 TRAVEL      0.0589        C  5 --  C  6          +11.2% ( 46.8%)    59.4%
 RED. MASS   2.2945        C  2 --  C  3           +9.6% ( 43.1%)    60.9%
 EFF. MASS  12.0448

 VIBRATION   52   31A'      ATOM PAIR        ENERGY CONTRIBUTION    RADIAL
 FREQ.      1736.25        C 14 --  C 15          +46.3% (100.0%)   100.0%
 T-DIPOLE    0.5122        C 15 --  C 17          +13.8% ( 54.6%)    16.2%
 TRAVEL      0.0572        C 12 --  C 14          +13.8% ( 54.6%)    16.2%
 RED. MASS   5.4834        C 15 --  H 18          +12.9% ( 52.8%)    18.0%
 EFF. MASS  11.8858        C 14 --  H 16          +12.9% ( 52.7%)    18.0%

 VIBRATION   53   22A"      ATOM PAIR        ENERGY CONTRIBUTION    RADIAL
 FREQ.      1748.97        C 17 --  O 19          +27.0% ( 72.5%)    99.2%
 T-DIPOLE   15.5210        C 12 --  O 13          +27.0% ( 72.5%)    99.3%
 TRAVEL      0.0535        C 12 --  C 14          +11.6% ( 47.6%)    60.1%
 RED. MASS   3.4226        C 15 --  C 17          +11.6% ( 47.6%)    60.1%
 EFF. MASS  13.4774        N 11 --  C 12          +11.3% ( 46.9%)    18.0%
                           N 11 --  C 17          +11.3% ( 46.9%)    17.9%

 VIBRATION   54   32A'      ATOM PAIR        ENERGY CONTRIBUTION    RADIAL
 FREQ.      1862.69        C 12 --  O 13          +25.7% ( 67.7%)    99.9%
 T-DIPOLE    0.1483        C 17 --  O 19          +25.7% ( 67.6%)    99.9%
 TRAVEL      0.0523        C 12 --  C 14          +12.1% ( 46.4%)    60.8%
 RED. MASS   3.4493        C 15 --  C 17          +12.1% ( 46.4%)    60.8%
 EFF. MASS  13.2475        N 11 --  C 12          +11.8% ( 45.8%)    27.3%
                           N 11 --  C 17          +11.7% ( 45.7%)    27.2%

 VIBRATION   55   33A'      ATOM PAIR        ENERGY CONTRIBUTION    RADIAL
 FREQ.      2705.40        C  4 --  H  8          +76.1% ( 88.3%)   100.0%
 T-DIPOLE    1.0538        C  3 --  H  7          +18.8% ( 43.8%)   100.0%
 TRAVEL      0.1341        C  5 --  H  9           +3.1% ( 17.8%)    99.7%
 RED. MASS   0.5982        C  3 --  C  4           +1.0% (  9.9%)     3.0%
 EFF. MASS   1.3851

 VIBRATION   56   23A"      ATOM PAIR        ENERGY CONTRIBUTION    RADIAL
 FREQ.      2710.94        C 15 --  H 18          +48.9% ( 70.9%)    99.9%
 T-DIPOLE    1.6110        C 14 --  H 16          +48.9% ( 70.9%)    99.9%
 TRAVEL      0.1334        C 14 --  C 15           +0.9% (  9.5%)     0.0%
 RED. MASS   0.4652        C 12 --  C 14           +0.7% (  8.5%)    14.0%
 EFF. MASS   1.3987

 VIBRATION   57   34A'      ATOM PAIR        ENERGY CONTRIBUTION    RADIAL
 FREQ.      2711.05        C  6 --  H 10          +79.3% ( 90.1%)   100.0%
 T-DIPOLE    1.3692        C  5 --  H  9          +15.2% ( 39.4%)    99.8%
 TRAVEL      0.1341        C  4 --  H  8           +2.1% ( 14.5%)    99.9%
 RED. MASS   0.6349        C  3 --  H  7           +1.4% ( 11.9%)    99.9%
 EFF. MASS   1.3823

 VIBRATION   58   35A'      ATOM PAIR        ENERGY CONTRIBUTION    RADIAL
 FREQ.      2717.76        C  3 --  H  7          +62.5% ( 79.9%)   100.0%
 T-DIPOLE    1.8226        C  5 --  H  9          +26.4% ( 51.9%)   100.0%
 TRAVEL      0.1338        C  4 --  H  8           +8.4% ( 29.2%)    99.7%
 RED. MASS   0.4539        C  3 --  C  4           +0.8% (  9.1%)    53.9%
 EFF. MASS   1.3853

 VIBRATION   59   36A'      ATOM PAIR        ENERGY CONTRIBUTION    RADIAL
 FREQ.      2730.71        C 14 --  H 16          +41.7% ( 65.5%)    99.9%
 T-DIPOLE    2.1713        C 15 --  H 18          +41.7% ( 65.5%)    99.9%
 TRAVEL      0.1265        C  5 --  H  9           +7.9% ( 28.5%)   100.0%
 RED. MASS   0.3554        C  6 --  H 10           +2.4% ( 15.9%)    99.9%
 EFF. MASS   1.5386

 VIBRATION   60   37A'      ATOM PAIR        ENERGY CONTRIBUTION    RADIAL
 FREQ.      2733.50        C  5 --  H  9          +45.3% ( 67.9%)   100.0%
 T-DIPOLE    1.1181        C  6 --  H 10          +15.3% ( 39.5%)    99.9%
 TRAVEL      0.1300        C  3 --  H  7          +13.8% ( 37.5%)   100.0%
 RED. MASS   0.2606        C  4 --  H  8           +9.9% ( 31.7%)   100.0%
 EFF. MASS   1.4637

 SYMMETRY NUMBER FOR POINT-GROUP Cs  =  1


          SYSTEM IS A GROUND STATE


                                                                                                                                                                                                                                                 
 SJ000001504-1_T001S001I001C01: Free energy calculation                                                                                                                                                                                          


          MOLECULE IS NOT LINEAR

          THERE ARE 60 GENUINE VIBRATIONS IN THIS SYSTEM
          THIS THERMODYNAMICS CALCULATION IS LIMITED TO
          MOLECULES WHICH HAVE NO INTERNAL ROTATIONS




                    CALCULATED THERMODYNAMIC PROPERTIES
                                          *
   TEMP. (K)   PARTITION FUNCTION   H.O.F.    ENTHALPY  HEAT CAPACITY ENTROPY
                                   KCAL/MOL   CAL/MOLE    CAL/K/MOL  CAL/K/MOL


 298.00  VIB.     0.4262D+05                  6485.9812    42.8817    42.9486
         ROT.     0.2159D+07                   888.2813     2.9808    31.9644
         INT.     0.9200D+11                  7374.2625    45.8625    74.9131
         TRA.     0.3115D+28                  1480.4688     4.9680    42.0411
         TOT.                      -36.203    8854.7314    50.8305   116.9542

 200.00  VIB.     0.1136D+04                  2966.9623    28.8416    28.8153
         ROT.     0.1187D+07                   596.1620     2.9808    30.7757
         INT.     0.1348D+10                  3563.1242    31.8224    59.5911
         TRA.     0.1713D+28                   993.6033     4.9680    40.0600
         TOT.                      -40.501    4556.7275    36.7904    99.6511

 210.00  VIB.     0.1649D+04                  3262.6044    30.2875    30.2575
         ROT.     0.1277D+07                   625.9700     2.9808    30.9212
         INT.     0.2106D+10                  3888.5745    33.2683    61.1787
         TRA.     0.1843D+28                  1043.2834     4.9680    40.3024
         TOT.                      -40.126    4931.8579    38.2364   101.4810

 220.00  VIB.     0.2392D+04                  3572.7223    31.7363    31.6999
         ROT.     0.1369D+07                   655.7781     2.9808    31.0599
         INT.     0.3276D+10                  4228.5004    34.7171    62.7598
         TRA.     0.1976D+28                  1092.9636     4.9680    40.5335
         TOT.                      -39.736    5321.4640    39.6851   103.2932

 230.00  VIB.     0.3467D+04                  3897.3322    33.1856    33.1426
         ROT.     0.1464D+07                   685.5862     2.9808    31.1924
         INT.     0.5075D+10                  4582.9184    36.1664    64.3350
         TRA.     0.2112D+28                  1142.6437     4.9680    40.7543
         TOT.                      -39.332    5725.5622    41.1344   105.0893

 240.00  VIB.     0.5021D+04                  4236.4273    34.6330    34.5856
         ROT.     0.1560D+07                   715.3943     2.9808    31.3192
         INT.     0.7835D+10                  4951.8216    37.6138    65.9048
         TRA.     0.2252D+28                  1192.3239     4.9680    40.9657
         TOT.                      -38.913    6144.1455    42.5818   106.8705

 250.00  VIB.     0.7268D+04                  4589.9778    36.0763    36.0286
         ROT.     0.1659D+07                   745.2024     2.9808    31.4409
         INT.     0.1206D+11                  5335.1802    39.0571    67.4695
         TRA.     0.2394D+28                  1242.0041     4.9680    41.1686
         TOT.                      -38.480    6577.1843    44.0251   108.6381

 260.00  VIB.     0.1051D+05                  4957.9317    37.5133    37.4716
         ROT.     0.1759D+07                   775.0105     2.9808    31.5578
         INT.     0.1850D+11                  5732.9423    40.4941    69.0294
         TRA.     0.2539D+28                  1291.6842     4.9680    41.3634
         TOT.                      -38.033    7024.6265    45.4621   110.3928

 270.00  VIB.     0.1521D+05                  5340.2158    38.9420    38.9142
         ROT.     0.1862D+07                   804.8186     2.9808    31.6703
         INT.     0.2831D+11                  6145.0345    41.9228    70.5845
         TRA.     0.2687D+28                  1341.3644     4.9680    41.5509
         TOT.                      -37.571    7486.3989    46.8908   112.1354

 280.00  VIB.     0.2198D+05                  5736.7367    40.3603    40.3561
         ROT.     0.1966D+07                   834.6267     2.9808    31.7787
         INT.     0.4322D+11                  6571.3634    43.3411    72.1348
         TRA.     0.2837D+28                  1391.0445     4.9680    41.7316
         TOT.                      -37.095    7962.4080    48.3092   113.8664

 290.00  VIB.     0.3176D+05                  6147.3821    41.7666    41.7969
         ROT.     0.2073D+07                   864.4348     2.9808    31.8833
         INT.     0.6582D+11                  7011.8169    44.7474    73.6803
         TRA.     0.2991D+28                  1440.7247     4.9680    41.9059
         TOT.                      -36.605    8452.5416    49.7154   115.5862

 300.00  VIB.     0.4587D+05                  6572.0220    43.1590    43.2364
         ROT.     0.2181D+07                   894.2429     2.9808    31.9844
         INT.     0.1000D+12                  7466.2649    46.1398    75.2208
         TRA.     0.3147D+28                  1490.4049     4.9680    42.0743
         TOT.                      -36.101    8956.6698    51.1078   117.2951

 310.00  VIB.     0.6622D+05                  7010.5107    44.5361    44.6741
         ROT.     0.2291D+07                   924.0510     2.9808    32.0821
         INT.     0.1517D+12                  7934.5618    47.5169    76.7562
         TRA.     0.3305D+28                  1540.0850     4.9680    42.2372
         TOT.                      -35.583    9474.6468    52.4849   118.9934

 320.00  VIB.     0.9558D+05                  7462.6878    45.8964    46.1096
         ROT.     0.2402D+07                   953.8591     2.9808    32.1767
         INT.     0.2296D+12                  8416.5469    48.8773    78.2863
         TRA.     0.3467D+28                  1589.7652     4.9680    42.3950
         TOT.                      -35.051   10006.3121    53.8453   120.6813

 330.00  VIB.     0.1379D+06                  7928.3798    47.2389    47.5425
         ROT.     0.2516D+07                   983.6672     2.9808    32.2685
         INT.     0.3469D+12                  8912.0470    50.2197    79.8109
         TRA.     0.3630D+28                  1639.4454     4.9680    42.5478
         TOT.                      -34.506   10551.4924    55.1877   122.3588

 340.00  VIB.     0.1989D+06                  8407.4019    48.5623    48.9724
         ROT.     0.2631D+07                  1013.4753     2.9808    32.3575
         INT.     0.5232D+12                  9420.8772    51.5431    81.3298
         TRA.     0.3797D+28                  1689.1255     4.9680    42.6961
         TOT.                      -33.948   11110.0027    56.5111   124.0260

 350.00  VIB.     0.2867D+06                  8899.5594    49.8658    50.3989
         ROT.     0.2748D+07                  1043.2834     2.9808    32.4439
         INT.     0.7878D+12                  9942.8428    52.8466    82.8428
         TRA.     0.3965D+28                  1738.8057     4.9680    42.8402
         TOT.                      -33.376   11681.6485    57.8146   125.6830

 360.00  VIB.     0.4132D+06                  9404.6490    51.1486    51.8217
         ROT.     0.2867D+07                  1073.0915     2.9808    32.5278
         INT.     0.1184D+13                 10477.7405    54.1294    84.3496
         TRA.     0.4137D+28                  1788.4859     4.9680    42.9801
         TOT.                      -32.791   12266.2264    59.0974   127.3297

 370.00  VIB.     0.5951D+06                  9922.4604    52.4101    53.2404
         ROT.     0.2987D+07                  1102.8996     2.9808    32.6095
         INT.     0.1778D+13                 11025.3600    55.3909    85.8499
         TRA.     0.4310D+28                  1838.1660     4.9680    43.1162
         TOT.                      -32.194   12863.5260    60.3589   128.9661

 380.00  VIB.     0.8569D+06                 10452.7775    53.6497    54.6546
         ROT.     0.3109D+07                  1132.7077     2.9808    32.6890
         INT.     0.2664D+13                 11585.4852    56.6305    87.3436
         TRA.     0.4486D+28                  1887.8462     4.9680    43.2487
         TOT.                      -31.584   13473.3313    61.5985   130.5923

 390.00  VIB.     0.1233D+07                 10995.3795    54.8670    56.0640
         ROT.     0.3232D+07                  1162.5158     2.9808    32.7664
         INT.     0.3986D+13                 12157.8953    57.8478    88.8304
         TRA.     0.4664D+28                  1937.5263     4.9680    43.3778
         TOT.                      -30.962   14095.4216    62.8158   132.2082

 400.00  VIB.     0.1774D+07                 11550.0423    56.0618    57.4682
         ROT.     0.3357D+07                  1192.3239     2.9808    32.8419
         INT.     0.5955D+13                 12742.3662    59.0426    90.3101
         TRA.     0.4845D+28                  1987.2065     4.9680    43.5035
         TOT.                      -30.328   14729.5727    64.0106   133.8136

   *: NOTE: HEATS OF FORMATION ARE RELATIVE TO THE
             ELEMENTS IN THEIR STANDARD STATE AT 298K
              (=  Standard Enthalpy of Formation).
            Heat of Formation at T is calculated as [Escf + (HT - H298.15)-.

            Hvib:  Zero-point energy is not included.
                   Wi < 100 cm-1 are not included.
            Hrot = (3/2)RT
            Htra = (3/2)RT + pV = (5/2)RT

            Heat capacity is Cp, not Cv

                 See Section 8.20 in Manual for further information.   (by TH).

           FORCE CONSTANT IN CARTESIAN COORDINATES (Millidynes/A)

    ATOM   CHEMICAL       X               Y               Z
   NUMBER   SYMBOL  FORCE CONSTANT  FORCE CONSTANT  FORCE CONSTANT

      1       C       10.537348        9.473504        2.136088
      2       C       10.048918       10.647989        2.714585
      3       C        9.333056       10.156928        2.126980
      4       C        9.977285        9.494385        2.270263
      5       C        9.901528        9.658632        2.129803
      6       C        9.261985       10.203224        2.226952
      7       H        4.126362        0.858405        0.361396
      8       H        1.655180        3.280533        0.361609
      9       H        1.658599        3.352646        0.343279
     10       H        4.120405        0.864803        0.340522
     11       N        3.878533        9.017498        7.474100
     12       C        3.609539        6.495050       13.700680
     13       O        0.897056        1.933844       11.800088
     14       C        3.263571        6.107767       13.270940
     15       C        3.279813        6.094195       13.268270
     16       H        0.904858        2.145715        2.109428
     17       C        3.556136        6.550966       13.698167
     18       H        0.928393        2.121410        2.110197
     19       O        0.840541        1.992808       11.797639
     20       N       12.568687       11.444639        3.078254
     21       O       11.437927        1.790936        0.402448
     22       O        3.965032        9.201476        0.363082



 TOTAL CPU TIME:             6.43 SECONDS

 == MOPAC DONE ==
