 *******************************************************************************
 ** Site#:  958            For non-commercial use only         Version 9.015L **
 *******************************************************************************
 ** Cite this work as: MOPAC2009, James J. P. Stewart, Stewart Computational  **
 ** Chemistry, Version 9.015L web: HTTP://OpenMOPAC.net                       **
 *******************************************************************************
 **                                                                           **
 **                                MOPAC2009                                  **
 **                                                                           **
 *******************************************************************************

                            PM6 CALCULATION RESULTS


 *******************************************************************************
 *  CALCULATION DONE:                                Thu Sep  8 02:10:09 2011  *
 *  PM6      - The PM6 Hamiltonian to be used
 *  PDBOUT   - PRINT GEOMETY IN PDB FORMAT
 *  MOZYME   - USE LOCALIZED M.O.s IN SOLVING THE SCF EQUATIONS
 *
 *
 *
 *                 CHARGE ON SYSTEM =     0
 *
 *
 *
 *  EPS= 78.400
 *  RSOLV=  1.300
 *  LET      - OVERRIDE SOME SAFETY CHECKS
 *  XYZ      - CARTESIAN COORDINATE SYSTEM TO BE USED
 *  LBFGS    - USE THE LBFGS GEOMETRY OPTIMIZER
 *  1SCF     - DO 1 SCF AND THEN STOP 
 *  T=       - A TIME OF  0.3E+08 SECONDS REQUESTED
 *  DUMP=N   - RESTART FILE WRITTEN EVERY  4320.000 SECONDS
 *  DDMIN=   - MINIMUM TRUST RADIUS  0.000 ANG/RAD
 *  GNORM=   - EXIT WHEN GRADIENT NORM DROPS BELOW .150    
 *  RELSCF   - DEFAULT SCF CRITERION MULTIPLIED BY   0.100    
 *             (DEFAULT SCFCRT= 0.00010)
 *  MULLIK   - THE MULLIKEN ANALYSIS TO BE PERFORMED
 *******************************************************************************
 PM6 T=31414243 DUMP=4320 XYZ EPS=78.40 RSOLV=1.30 MULLIK LBFGS MOZYME PDBOUT +
 CHARGE=0 RELSCF=0.1 LET DDMIN=0.0 GNORM=0.15 1SCF
 SJ000002349-1_T001S001I001C05_001: Geometry optimization step

   ATOM   CHEMICAL          X               Y              Z
  NUMBER   SYMBOL      (ANGSTROMS)     (ANGSTROMS)    (ANGSTROMS)
 
     1       C         -1.2880000  *  -25.679000  *   13.025000  *
     2       C         -0.8400000  *  -26.849000  *   12.147000  *
     3       C         -1.9250000  *  -27.196000  *   11.156000  *
     4       C         -3.2190000  *  -27.021000  *   11.484000  *
     5       C         -4.3010000  *  -27.362000  *   10.490000  *
     6       C         -3.7380000  *  -27.431000  *    9.093000  *
     7       C         -2.4120000  *  -27.579000  *    8.909000  *
     8       C         -1.8440000  *  -27.639000  *    7.511000  *
     9       C         -2.6910000  *  -26.786000  *    6.566000  *
    10       C         -4.1000000  *  -27.384000  *    6.585000  *
    11       C         -4.6150000  *  -27.338000  *    7.997000  *
    12       O         -5.8080000  *  -27.220000  *    8.194000  *
    13       O         -1.5750000  *  -27.682000  *    9.954000  *
    14       C         -3.5850000  *  -26.519000  *   12.746000  *
    15       O         -4.7610000  *  -26.383000  *   13.018000  *
    16       C         -2.5430000  *  -26.147000  *   13.766000  *
    17       H          0.0650000  *  -26.569000  *   11.608000  *
    18       H         -0.6340000  *  -27.714000  *   12.776000  *
    19       H         -4.7370000  *  -28.327000  *   10.750000  *
    20       H         -0.8220000  *  -27.263000  *    7.520000  *
    21       H         -1.8450000  *  -28.673000  *    7.165000  *
    22       H         -4.7550000  *  -26.802000  *    5.936000  *
    23       H         -4.0640000  *  -28.417000  *    6.239000  *
    24       H         -2.3050000  *  -27.014000  *   14.381000  *
    25       H         -2.9170000  *  -25.341000  *   14.397000  *
    26       C         -5.3740000  *  -26.304000  *   10.542000  *
    27       C         -6.6840000  *  -26.659000  *   10.831000  *
    28       C         -7.6700000  *  -25.685000  *   10.879000  *
    29       C         -7.3450000  *  -24.361000  *   10.636000  *
    30       H         -8.6910000  *  -25.959000  *   11.104000  *
    31       C         -6.0330000  *  -24.011000  *   10.345000  *
    32       C         -5.0520000  *  -24.981000  *   10.304000  *
    33       H         -5.7800000  *  -22.979000  *   10.156000  *
    34       H         -4.0320000  *  -24.707000  *   10.080000  *
    35       O         -7.0000000  *  -27.959000  *   11.071000  *
    36       H         -7.1330000  *  -28.486000  *   10.270000  *
    37       O         -8.3090000  *  -23.404000  *   10.681000  *
    38       H         -9.2080000  *  -23.755000  *   10.742000  *
    39       C         -0.1880000  *  -25.325000  *   14.028000  *
    40       H         -0.6420000  *  -25.010000  *   14.968000  *
    41       H          0.4400000  *  -26.199000  *   14.203000  *
    42       H          0.4190000  *  -24.514000  *   13.629000  *
    43       C         -1.6140000  *  -24.465000  *   12.154000  *
    44       H         -2.6120000  *  -24.100000  *   12.397000  *
    45       H         -0.8850000  *  -23.678000  *   12.341000  *
    46       H         -1.5790000  *  -24.751000  *   11.103000  *
    47       C         -2.7300000  *  -25.338000  *    7.059000  *
    48       H         -3.7620000  *  -25.051000  *    7.260000  *
    49       H         -2.1430000  *  -25.249000  *    7.972000  *
    50       H         -2.3140000  *  -24.683000  *    6.294000  *
    51       C         -2.1140000  *  -26.842000  *    5.150000  *
    52       H         -1.8460000  *  -25.836000  *    4.828000  *
    53       H         -1.2260000  *  -27.474000  *    5.145000  *
    54       H         -2.8580000  *  -27.256000  *    4.470000  *
 


          CARTESIAN COORDINATES 

    NO.       ATOM         X         Y         Z

     1         C       -1.2880  -25.6790   13.0250
     2         C       -0.8400  -26.8490   12.1470
     3         C       -1.9250  -27.1960   11.1560
     4         C       -3.2190  -27.0210   11.4840
     5         C       -4.3010  -27.3620   10.4900
     6         C       -3.7380  -27.4310    9.0930
     7         C       -2.4120  -27.5790    8.9090
     8         C       -1.8440  -27.6390    7.5110
     9         C       -2.6910  -26.7860    6.5660
    10         C       -4.1000  -27.3840    6.5850
    11         C       -4.6150  -27.3380    7.9970
    12         O       -5.8080  -27.2200    8.1940
    13         O       -1.5750  -27.6820    9.9540
    14         C       -3.5850  -26.5190   12.7460
    15         O       -4.7610  -26.3830   13.0180
    16         C       -2.5430  -26.1470   13.7660
    17         H        0.0650  -26.5690   11.6080
    18         H       -0.6340  -27.7140   12.7760
    19         H       -4.7370  -28.3270   10.7500
    20         H       -0.8220  -27.2630    7.5200
    21         H       -1.8450  -28.6730    7.1650
    22         H       -4.7550  -26.8020    5.9360
    23         H       -4.0640  -28.4170    6.2390
    24         H       -2.3050  -27.0140   14.3810
    25         H       -2.9170  -25.3410   14.3970
    26         C       -5.3740  -26.3040   10.5420
    27         C       -6.6840  -26.6590   10.8310
    28         C       -7.6700  -25.6850   10.8790
    29         C       -7.3450  -24.3610   10.6360
    30         H       -8.6910  -25.9590   11.1040
    31         C       -6.0330  -24.0110   10.3450
    32         C       -5.0520  -24.9810   10.3040
    33         H       -5.7800  -22.9790   10.1560
    34         H       -4.0320  -24.7070   10.0800
    35         O       -7.0000  -27.9590   11.0710
    36         H       -7.1330  -28.4860   10.2700
    37         O       -8.3090  -23.4040   10.6810
    38         H       -9.2080  -23.7550   10.7420
    39         C       -0.1880  -25.3250   14.0280
    40         H       -0.6420  -25.0100   14.9680
    41         H        0.4400  -26.1990   14.2030
    42         H        0.4190  -24.5140   13.6290
    43         C       -1.6140  -24.4650   12.1540
    44         H       -2.6120  -24.1000   12.3970
    45         H       -0.8850  -23.6780   12.3410
    46         H       -1.5790  -24.7510   11.1030
    47         C       -2.7300  -25.3380    7.0590
    48         H       -3.7620  -25.0510    7.2600
    49         H       -2.1430  -25.2490    7.9720
    50         H       -2.3140  -24.6830    6.2940
    51         C       -2.1140  -26.8420    5.1500
    52         H       -1.8460  -25.8360    4.8280
    53         H       -1.2260  -27.4740    5.1450
    54         H       -2.8580  -27.2560    4.4700

 General Reference for PM6:
 "Optimization of Parameters for Semiempirical Methods V: Modification of NDDO Approximations
 and Application to 70 Elements", J. J. P. Stewart, J. Mol. Mod., 13, 1173-1213 (2007)
 URL: http://www.springerlink.com/content/ar33482301010477/fulltext.pdf

           Empirical Formula: C23 H26 O5  =    54 atoms



      MOLECULAR POINT GROUP   :   C1  
 
   NUMBER AND TYPES OF BONDS IDENTIFIED
 
         SIGMA BONDS               57
         LONE PAIRS                10
         NORMAL PI BONDS            6
         AROMATIC RING PI BONDS     1
 

                  Ramachandran Angles
              Residue    phi    psi  omega

  
  SCF CRITERION =    0.1000E-02

 -------------------------------------------------------------------------------
 PM6 T=31414243 DUMP=4320 XYZ EPS=78.40 RSOLV=1.30 MULLIK LBFGS MOZYME PDBOUT +
 CHARGE=0 RELSCF=0.1 LET DDMIN=0.0 GNORM=0.15 1SCF
 SJ000002349-1_T001S001I001C05_001: Geometry optimization step



     1SCF WAS SPECIFIED, SO BFGS WAS NOT USED                 
     SCF FIELD WAS ACHIEVED                                   


                               PM6     CALCULATION
                                                       MOPAC2009 (Version: 9.015L)
                                                       Thu Sep  8 02:10:10 2011




          FINAL HEAT OF FORMATION =       -182.68039 KCAL =    -764.33474 KJ
          VAN DER WAALS AREA      =        351.96 SQUARE ANGSTROMS


          TOTAL ENERGY            =      -4645.63785 EV
          ELECTRONIC ENERGY       =     -42304.73639 EV
          CORE-CORE REPULSION     =      37659.09855 EV
          DIELECTRIC ENERGY       =         -1.35962 EV
          COSMO AREA              =        351.96 SQUARE ANGSTROMS
          COSMO VOLUME            =        456.05 CUBIC ANGSTROMS

          NO. OF FILLED LEVELS    =         74
          MOLECULAR WEIGHT        =        382.455

          MOLECULAR DIMENSIONS (Angstroms)

            Atom       Atom       Distance
            H    41    H    38    10.53734
            H    54    H    40     9.77753
            H    36    H    50     6.06441


          SCF CALCULATIONS        =          2
          COMPUTATION TIME        =          0.587 SECONDS




   ATOM           CHEMICAL             X               Y              Z
  NUMBER           SYMBOL         (ANGSTROMS)     (ANGSTROMS)    (ANGSTROMS)
 
     1       C(     1  C     )   -1.2880000  *  -25.679000  *   13.025000  *
     2       C(     2  C     )   -0.8400000  *  -26.849000  *   12.147000  *
     3       C(     3  C     )   -1.9250000  *  -27.196000  *   11.156000  *
     4       C(     4  C     )   -3.2190000  *  -27.021000  *   11.484000  *
     5       C(     5  C     )   -4.3010000  *  -27.362000  *   10.490000  *
     6       C(     6  C     )   -3.7380000  *  -27.431000  *    9.093000  *
     7       C(     7  C     )   -2.4120000  *  -27.579000  *    8.909000  *
     8       C(     8  C     )   -1.8440000  *  -27.639000  *    7.511000  *
     9       C(     9  C     )   -2.6910000  *  -26.786000  *    6.566000  *
    10       C(    10  C     )   -4.1000000  *  -27.384000  *    6.585000  *
    11       C(    11  C     )   -4.6150000  *  -27.338000  *    7.997000  *
    12       O(    12  O     )   -5.8080000  *  -27.220000  *    8.194000  *
    13       O(    13  O     )   -1.5750000  *  -27.682000  *    9.954000  *
    14       C(    14  C     )   -3.5850000  *  -26.519000  *   12.746000  *
    15       O(    15  O     )   -4.7610000  *  -26.383000  *   13.018000  *
    16       C(    16  C     )   -2.5430000  *  -26.147000  *   13.766000  *
    17       H(    17  C     )    0.0650000  *  -26.569000  *   11.608000  *
    18       H(    18  C     )   -0.6340000  *  -27.714000  *   12.776000  *
    19       H(    19  C     )   -4.7370000  *  -28.327000  *   10.750000  *
    20       H(    20  C     )   -0.8220000  *  -27.263000  *    7.520000  *
    21       H(    21  C     )   -1.8450000  *  -28.673000  *    7.165000  *
    22       H(    22  C     )   -4.7550000  *  -26.802000  *    5.936000  *
    23       H(    23  C     )   -4.0640000  *  -28.417000  *    6.239000  *
    24       H(    24  C     )   -2.3050000  *  -27.014000  *   14.381000  *
    25       H(    25  C     )   -2.9170000  *  -25.341000  *   14.397000  *
    26       C(    26  C     )   -5.3740000  *  -26.304000  *   10.542000  *
    27       C(    27  C     )   -6.6840000  *  -26.659000  *   10.831000  *
    28       C(    28  C     )   -7.6700000  *  -25.685000  *   10.879000  *
    29       C(    29  C     )   -7.3450000  *  -24.361000  *   10.636000  *
    30       H(    30  C     )   -8.6910000  *  -25.959000  *   11.104000  *
    31       C(    31  C     )   -6.0330000  *  -24.011000  *   10.345000  *
    32       C(    32  C     )   -5.0520000  *  -24.981000  *   10.304000  *
    33       H(    33  C     )   -5.7800000  *  -22.979000  *   10.156000  *
    34       H(    34  C     )   -4.0320000  *  -24.707000  *   10.080000  *
    35       O(    35  O     )   -7.0000000  *  -27.959000  *   11.071000  *
    36       H(    36  O     )   -7.1330000  *  -28.486000  *   10.270000  *
    37       O(    37  O     )   -8.3090000  *  -23.404000  *   10.681000  *
    38       H(    38  O     )   -9.2080000  *  -23.755000  *   10.742000  *
    39       C(    39  C     )   -0.1880000  *  -25.325000  *   14.028000  *
    40       H(    40  C     )   -0.6420000  *  -25.010000  *   14.968000  *
    41       H(    41  C     )    0.4400000  *  -26.199000  *   14.203000  *
    42       H(    42  C     )    0.4190000  *  -24.514000  *   13.629000  *
    43       C(    43  C     )   -1.6140000  *  -24.465000  *   12.154000  *
    44       H(    44  C     )   -2.6120000  *  -24.100000  *   12.397000  *
    45       H(    45  C     )   -0.8850000  *  -23.678000  *   12.341000  *
    46       H(    46  C     )   -1.5790000  *  -24.751000  *   11.103000  *
    47       C(    47  C     )   -2.7300000  *  -25.338000  *    7.059000  *
    48       H(    48  C     )   -3.7620000  *  -25.051000  *    7.260000  *
    49       H(    49  C     )   -2.1430000  *  -25.249000  *    7.972000  *
    50       H(    50  C     )   -2.3140000  *  -24.683000  *    6.294000  *
    51       C(    51  C     )   -2.1140000  *  -26.842000  *    5.150000  *
    52       H(    52  C     )   -1.8460000  *  -25.836000  *    4.828000  *
    53       H(    53  C     )   -1.2260000  *  -27.474000  *    5.145000  *
    54       H(    54  C     )   -2.8580000  *  -27.256000  *    4.470000  *

           Empirical Formula: C23 H26 O5  =    54 atoms



              NET ATOMIC CHARGES AND DIPOLE CONTRIBUTIONS

  ATOM NO.   TYPE          CHARGE      No. of ELECS.   s-Pop       p-Pop       
    1          C           0.287893        3.7121     1.06316     2.64895
    2          C          -0.421328        4.4213     1.10721     3.31412
    3          C           0.432867        3.5671     1.10015     2.46698
    4          C          -0.485486        4.4855     1.11128     3.37421
    5          C           0.127480        3.8725     1.05074     2.82178
    6          C          -0.488954        4.4890     1.11140     3.37756
    7          C           0.435585        3.5644     1.10036     2.46406
    8          C          -0.422743        4.4227     1.10786     3.31489
    9          C           0.288113        3.7119     1.06313     2.64875
   10          C          -0.533358        4.5334     1.11898     3.41438
   11          C           0.664296        3.3357     1.07342     2.26228
   12          O          -0.620436        6.6204     1.84529     4.77515
   13          O          -0.347856        6.3479     1.78220     4.56566
   14          C           0.666353        3.3336     1.07334     2.26030
   15          O          -0.620168        6.6202     1.84532     4.77485
   16          C          -0.534052        4.5341     1.11874     3.41532
   17          H           0.198703        0.8013     0.80130
   18          H           0.204942        0.7951     0.79506
   19          H           0.144636        0.8554     0.85536
   20          H           0.198812        0.8012     0.80119
   21          H           0.206689        0.7933     0.79331
   22          H           0.201258        0.7987     0.79874
   23          H           0.207237        0.7928     0.79276
   24          H           0.206709        0.7933     0.79329
   25          H           0.201016        0.7990     0.79898
   26          C          -0.162473        4.1625     1.09409     3.06838
   27          C           0.423199        3.5768     1.05636     2.52044
   28          C          -0.505414        4.5054     1.11095     3.39446
   29          C           0.392370        3.6076     1.05966     2.54797
   30          H           0.201020        0.7990     0.79898
   31          C          -0.375682        4.3757     1.09626     3.27942
   32          C           0.001037        3.9990     1.09464     2.90432
   33          H           0.184722        0.8153     0.81528
   34          H           0.152083        0.8479     0.84792
   35          O          -0.575587        6.5756     1.77222     4.80337
   36          H           0.374859        0.6251     0.62514
   37          O          -0.527918        6.5279     1.78133     4.74658
   38          H           0.367244        0.6328     0.63276
   39          C          -0.546768        4.5468     1.09584     3.45092
   40          H           0.173486        0.8265     0.82651
   41          H           0.170920        0.8291     0.82908
   42          H           0.172920        0.8271     0.82708
   43          C          -0.557109        4.5571     1.09734     3.45977
   44          H           0.171186        0.8288     0.82881
   45          H           0.176664        0.8233     0.82334
   46          H           0.165069        0.8349     0.83493
   47          C          -0.557943        4.5579     1.09817     3.45977
   48          H           0.170114        0.8299     0.82989
   49          H           0.167223        0.8328     0.83278
   50          H           0.176546        0.8235     0.82345
   51          C          -0.550410        4.5504     1.09669     3.45372
   52          H           0.174701        0.8253     0.82530
   53          H           0.172494        0.8275     0.82751
   54          H           0.173239        0.8268     0.82676


          CARTESIAN COORDINATES 

    NO.       ATOM               X         Y         Z

     1         C                 -1.2880  -25.6790   13.0250
     2         C                 -0.8400  -26.8490   12.1470
     3         C                 -1.9250  -27.1960   11.1560
     4         C                 -3.2190  -27.0210   11.4840
     5         C                 -4.3010  -27.3620   10.4900
     6         C                 -3.7380  -27.4310    9.0930
     7         C                 -2.4120  -27.5790    8.9090
     8         C                 -1.8440  -27.6390    7.5110
     9         C                 -2.6910  -26.7860    6.5660
    10         C                 -4.1000  -27.3840    6.5850
    11         C                 -4.6150  -27.3380    7.9970
    12         O                 -5.8080  -27.2200    8.1940
    13         O                 -1.5750  -27.6820    9.9540
    14         C                 -3.5850  -26.5190   12.7460
    15         O                 -4.7610  -26.3830   13.0180
    16         C                 -2.5430  -26.1470   13.7660
    17         H                  0.0650  -26.5690   11.6080
    18         H                 -0.6340  -27.7140   12.7760
    19         H                 -4.7370  -28.3270   10.7500
    20         H                 -0.8220  -27.2630    7.5200
    21         H                 -1.8450  -28.6730    7.1650
    22         H                 -4.7550  -26.8020    5.9360
    23         H                 -4.0640  -28.4170    6.2390
    24         H                 -2.3050  -27.0140   14.3810
    25         H                 -2.9170  -25.3410   14.3970
    26         C                 -5.3740  -26.3040   10.5420
    27         C                 -6.6840  -26.6590   10.8310
    28         C                 -7.6700  -25.6850   10.8790
    29         C                 -7.3450  -24.3610   10.6360
    30         H                 -8.6910  -25.9590   11.1040
    31         C                 -6.0330  -24.0110   10.3450
    32         C                 -5.0520  -24.9810   10.3040
    33         H                 -5.7800  -22.9790   10.1560
    34         H                 -4.0320  -24.7070   10.0800
    35         O                 -7.0000  -27.9590   11.0710
    36         H                 -7.1330  -28.4860   10.2700
    37         O                 -8.3090  -23.4040   10.6810
    38         H                 -9.2080  -23.7550   10.7420
    39         C                 -0.1880  -25.3250   14.0280
    40         H                 -0.6420  -25.0100   14.9680
    41         H                  0.4400  -26.1990   14.2030
    42         H                  0.4190  -24.5140   13.6290
    43         C                 -1.6140  -24.4650   12.1540
    44         H                 -2.6120  -24.1000   12.3970
    45         H                 -0.8850  -23.6780   12.3410
    46         H                 -1.5790  -24.7510   11.1030
    47         C                 -2.7300  -25.3380    7.0590
    48         H                 -3.7620  -25.0510    7.2600
    49         H                 -2.1430  -25.2490    7.9720
    50         H                 -2.3140  -24.6830    6.2940
    51         C                 -2.1140  -26.8420    5.1500
    52         H                 -1.8460  -25.8360    4.8280
    53         H                 -1.2260  -27.4740    5.1450
    54         H                 -2.8580  -27.2560    4.4700


          ATOMIC ORBITAL ELECTRON POPULATIONS

   1.06316   0.88673   0.87565   0.88657   1.10721   1.09252   1.14166   1.07994
   1.10015   0.93408   0.77508   0.75782   1.11128   1.03307   1.24562   1.09552
   1.05074   0.91826   1.03941   0.86411   1.11140   1.03460   1.26648   1.07648
   1.10036   0.86406   0.78225   0.81774   1.10786   1.15629   1.17985   0.97875
   1.06313   0.86376   0.88769   0.89731   1.11898   1.11806   1.19602   1.10030
   1.07342   0.80318   0.59699   0.86211   1.84529   1.36101   1.52581   1.88833
   1.78220   1.57943   1.70352   1.28271   1.07334   0.80971   0.62831   0.82229
   1.84532   1.37668   1.57363   1.82453   1.11874   1.09183   1.19570   1.12779
   0.80130   0.79506   0.85536   0.80119   0.79331   0.79874   0.79276   0.79329
   0.79898   1.09409   0.99388   0.99602   1.07848   1.05636   0.90962   0.75205
   0.85877   1.11095   1.12933   1.03284   1.23229   1.05966   0.84432   0.82811
   0.87553   0.79898   1.09626   0.99534   1.10934   1.17473   1.09464   1.04155
   0.95166   0.91111   0.81528   0.84792   1.77222   1.92866   1.34509   1.52962
   0.62514   1.78133   1.33225   1.51855   1.89578   0.63276   1.09584   1.12468
   1.18686   1.13939   0.82651   0.82908   0.82708   1.09734   1.19266   1.11919
   1.14792   0.82881   0.82334   0.83493   1.09817   1.19245   1.08375   1.18358
   0.82989   0.83278   0.82345   1.09669   1.17657   1.19775   1.07940   0.82530
   0.82751   0.82676

           MULLIKEN POPULATION ANALYSIS



        MULLIKEN POPULATIONS AND CHARGES

      NO.  ATOM   POPULATION      CHARGE
        1    C     3.683042      0.316958
        2    C     4.540512     -0.540512
        3    C     3.544385      0.455615
        4    C     4.535771     -0.535771
        5    C     3.870538      0.129462
        6    C     4.539471     -0.539471
        7    C     3.541227      0.458773
        8    C     4.542475     -0.542475
        9    C     3.682608      0.317392
       10    C     4.664864     -0.664864
       11    C     3.282704      0.717296
       12    O     6.645213     -0.645213
       13    O     6.394743     -0.394743
       14    C     3.280280      0.719720
       15    O     6.644934     -0.644934
       16    C     4.665629     -0.665629
       17    H     0.744066      0.255934
       18    H     0.738234      0.261766
       19    H     0.808140      0.191860
       20    H     0.743920      0.256080
       21    H     0.736141      0.263859
       22    H     0.741716      0.258284
       23    H     0.736334      0.263666
       24    H     0.736795      0.263205
       25    H     0.742036      0.257964
       26    C     4.179021     -0.179021
       27    C     3.546384      0.453616
       28    C     4.586220     -0.586220
       29    C     3.584737      0.415263
       30    H     0.736714      0.263286
       31    C     4.441842     -0.441842
       32    C     4.030680     -0.030680
       33    H     0.756510      0.243490
       34    H     0.799005      0.200995
       35    O     6.627651     -0.627651
       36    H     0.590449      0.409551
       37    O     6.579999     -0.579999
       38    H     0.598066      0.401934
       39    C     4.693396     -0.693396
       40    H     0.778164      0.221836
       41    H     0.781104      0.218896
       42    H     0.778911      0.221089
       43    C     4.702581     -0.702581
       44    H     0.781074      0.218926
       45    H     0.774191      0.225809
       46    H     0.788773      0.211227
       47    C     4.703417     -0.703417
       48    H     0.782415      0.217585
       49    H     0.785923      0.214077
       50    H     0.774772      0.225228
       51    C     4.697112     -0.697112
       52    H     0.777253      0.222747
       53    H     0.779449      0.220551
       54    H     0.778404      0.221596



 TOTAL CPU TIME:             0.62 SECONDS

 == MOPAC DONE ==
 *******************************************************************************
 ** Site#:  958            For non-commercial use only         Version 9.015L **
 *******************************************************************************
 ** Cite this work as: MOPAC2009, James J. P. Stewart, Stewart Computational  **
 ** Chemistry, Version 9.015L web: HTTP://OpenMOPAC.net                       **
 *******************************************************************************
 **                                                                           **
 **                                MOPAC2009                                  **
 **                                                                           **
 *******************************************************************************

                            PM6 CALCULATION RESULTS


 *******************************************************************************
 *  CALCULATION DONE:                                Thu Sep  8 02:10:10 2011  *
 *  PM6      - The PM6 Hamiltonian to be used
 *  GEO-OK   - OVERRIDE INTERATOMIC DISTANCE CHECK
 *  MOZYME   - USE LOCALIZED M.O.s IN SOLVING THE SCF EQUATIONS
 *
 *
 *
 *                 CHARGE ON SYSTEM =     0
 *
 *
 *
 *  EPS= 78.400
 *  RSOLV=  1.300
 *  OLDGEO   - PREVIOUS GEOMETRY TO BE USED
 *  T=       - A TIME OF 172800.0 SECONDS REQUESTED
 *  DUMP=N   - RESTART FILE WRITTEN EVERY  4320.000 SECONDS
 *  RELSCF   - DEFAULT SCF CRITERION MULTIPLIED BY   0.100    
 *             (DEFAULT SCFCRT= 0.00010)
 *  THERMO   - THERMODYNAMIC QUANTITIES TO BE CALCULATED
 *******************************************************************************
 PM6 DUMP=4320 MOZYME RELSCF=0.1 THERMO EPS=78.40 RSOLV=1.30 +
 OLDGEO GEO-OK CHARGE=0
 SJ000002349-1_T001S001I001C05_001: Free energy calculation

   ATOM           CHEMICAL             X               Y              Z
  NUMBER           SYMBOL         (ANGSTROMS)     (ANGSTROMS)    (ANGSTROMS)
 
     1       C(     1  C     )   -1.2880000  *  -25.679000  *   13.025000  *
     2       C(     2  C     )   -0.8400000  *  -26.849000  *   12.147000  *
     3       C(     3  C     )   -1.9250000  *  -27.196000  *   11.156000  *
     4       C(     4  C     )   -3.2190000  *  -27.021000  *   11.484000  *
     5       C(     5  C     )   -4.3010000  *  -27.362000  *   10.490000  *
     6       C(     6  C     )   -3.7380000  *  -27.431000  *    9.093000  *
     7       C(     7  C     )   -2.4120000  *  -27.579000  *    8.909000  *
     8       C(     8  C     )   -1.8440000  *  -27.639000  *    7.511000  *
     9       C(     9  C     )   -2.6910000  *  -26.786000  *    6.566000  *
    10       C(    10  C     )   -4.1000000  *  -27.384000  *    6.585000  *
    11       C(    11  C     )   -4.6150000  *  -27.338000  *    7.997000  *
    12       O(    12  O     )   -5.8080000  *  -27.220000  *    8.194000  *
    13       O(    13  O     )   -1.5750000  *  -27.682000  *    9.954000  *
    14       C(    14  C     )   -3.5850000  *  -26.519000  *   12.746000  *
    15       O(    15  O     )   -4.7610000  *  -26.383000  *   13.018000  *
    16       C(    16  C     )   -2.5430000  *  -26.147000  *   13.766000  *
    17       H(    17  C     )    0.0650000  *  -26.569000  *   11.608000  *
    18       H(    18  C     )   -0.6340000  *  -27.714000  *   12.776000  *
    19       H(    19  C     )   -4.7370000  *  -28.327000  *   10.750000  *
    20       H(    20  C     )   -0.8220000  *  -27.263000  *    7.520000  *
    21       H(    21  C     )   -1.8450000  *  -28.673000  *    7.165000  *
    22       H(    22  C     )   -4.7550000  *  -26.802000  *    5.936000  *
    23       H(    23  C     )   -4.0640000  *  -28.417000  *    6.239000  *
    24       H(    24  C     )   -2.3050000  *  -27.014000  *   14.381000  *
    25       H(    25  C     )   -2.9170000  *  -25.341000  *   14.397000  *
    26       C(    26  C     )   -5.3740000  *  -26.304000  *   10.542000  *
    27       C(    27  C     )   -6.6840000  *  -26.659000  *   10.831000  *
    28       C(    28  C     )   -7.6700000  *  -25.685000  *   10.879000  *
    29       C(    29  C     )   -7.3450000  *  -24.361000  *   10.636000  *
    30       H(    30  C     )   -8.6910000  *  -25.959000  *   11.104000  *
    31       C(    31  C     )   -6.0330000  *  -24.011000  *   10.345000  *
    32       C(    32  C     )   -5.0520000  *  -24.981000  *   10.304000  *
    33       H(    33  C     )   -5.7800000  *  -22.979000  *   10.156000  *
    34       H(    34  C     )   -4.0320000  *  -24.707000  *   10.080000  *
    35       O(    35  O     )   -7.0000000  *  -27.959000  *   11.071000  *
    36       H(    36  O     )   -7.1330000  *  -28.486000  *   10.270000  *
    37       O(    37  O     )   -8.3090000  *  -23.404000  *   10.681000  *
    38       H(    38  O     )   -9.2080000  *  -23.755000  *   10.742000  *
    39       C(    39  C     )   -0.1880000  *  -25.325000  *   14.028000  *
    40       H(    40  C     )   -0.6420000  *  -25.010000  *   14.968000  *
    41       H(    41  C     )    0.4400000  *  -26.199000  *   14.203000  *
    42       H(    42  C     )    0.4190000  *  -24.514000  *   13.629000  *
    43       C(    43  C     )   -1.6140000  *  -24.465000  *   12.154000  *
    44       H(    44  C     )   -2.6120000  *  -24.100000  *   12.397000  *
    45       H(    45  C     )   -0.8850000  *  -23.678000  *   12.341000  *
    46       H(    46  C     )   -1.5790000  *  -24.751000  *   11.103000  *
    47       C(    47  C     )   -2.7300000  *  -25.338000  *    7.059000  *
    48       H(    48  C     )   -3.7620000  *  -25.051000  *    7.260000  *
    49       H(    49  C     )   -2.1430000  *  -25.249000  *    7.972000  *
    50       H(    50  C     )   -2.3140000  *  -24.683000  *    6.294000  *
    51       C(    51  C     )   -2.1140000  *  -26.842000  *    5.150000  *
    52       H(    52  C     )   -1.8460000  *  -25.836000  *    4.828000  *
    53       H(    53  C     )   -1.2260000  *  -27.474000  *    5.145000  *
    54       H(    54  C     )   -2.8580000  *  -27.256000  *    4.470000  *
 


          CARTESIAN COORDINATES 

    NO.       ATOM         X         Y         Z

     1         C       -1.2880  -25.6790   13.0250
     2         C       -0.8400  -26.8490   12.1470
     3         C       -1.9250  -27.1960   11.1560
     4         C       -3.2190  -27.0210   11.4840
     5         C       -4.3010  -27.3620   10.4900
     6         C       -3.7380  -27.4310    9.0930
     7         C       -2.4120  -27.5790    8.9090
     8         C       -1.8440  -27.6390    7.5110
     9         C       -2.6910  -26.7860    6.5660
    10         C       -4.1000  -27.3840    6.5850
    11         C       -4.6150  -27.3380    7.9970
    12         O       -5.8080  -27.2200    8.1940
    13         O       -1.5750  -27.6820    9.9540
    14         C       -3.5850  -26.5190   12.7460
    15         O       -4.7610  -26.3830   13.0180
    16         C       -2.5430  -26.1470   13.7660
    17         H        0.0650  -26.5690   11.6080
    18         H       -0.6340  -27.7140   12.7760
    19         H       -4.7370  -28.3270   10.7500
    20         H       -0.8220  -27.2630    7.5200
    21         H       -1.8450  -28.6730    7.1650
    22         H       -4.7550  -26.8020    5.9360
    23         H       -4.0640  -28.4170    6.2390
    24         H       -2.3050  -27.0140   14.3810
    25         H       -2.9170  -25.3410   14.3970
    26         C       -5.3740  -26.3040   10.5420
    27         C       -6.6840  -26.6590   10.8310
    28         C       -7.6700  -25.6850   10.8790
    29         C       -7.3450  -24.3610   10.6360
    30         H       -8.6910  -25.9590   11.1040
    31         C       -6.0330  -24.0110   10.3450
    32         C       -5.0520  -24.9810   10.3040
    33         H       -5.7800  -22.9790   10.1560
    34         H       -4.0320  -24.7070   10.0800
    35         O       -7.0000  -27.9590   11.0710
    36         H       -7.1330  -28.4860   10.2700
    37         O       -8.3090  -23.4040   10.6810
    38         H       -9.2080  -23.7550   10.7420
    39         C       -0.1880  -25.3250   14.0280
    40         H       -0.6420  -25.0100   14.9680
    41         H        0.4400  -26.1990   14.2030
    42         H        0.4190  -24.5140   13.6290
    43         C       -1.6140  -24.4650   12.1540
    44         H       -2.6120  -24.1000   12.3970
    45         H       -0.8850  -23.6780   12.3410
    46         H       -1.5790  -24.7510   11.1030
    47         C       -2.7300  -25.3380    7.0590
    48         H       -3.7620  -25.0510    7.2600
    49         H       -2.1430  -25.2490    7.9720
    50         H       -2.3140  -24.6830    6.2940
    51         C       -2.1140  -26.8420    5.1500
    52         H       -1.8460  -25.8360    4.8280
    53         H       -1.2260  -27.4740    5.1450
    54         H       -2.8580  -27.2560    4.4700

 General Reference for PM6:
 "Optimization of Parameters for Semiempirical Methods V: Modification of NDDO Approximations
 and Application to 70 Elements", J. J. P. Stewart, J. Mol. Mod., 13, 1173-1213 (2007)
 URL: http://www.springerlink.com/content/ar33482301010477/fulltext.pdf

           Empirical Formula: C23 H26 O5  =    54 atoms



      MOLECULAR POINT GROUP   :   C1  
 
   NUMBER AND TYPES OF BONDS IDENTIFIED
 
         SIGMA BONDS               57
         LONE PAIRS                10
         NORMAL PI BONDS            6
         AROMATIC RING PI BONDS     1
 
  SCF CRITERION =    0.1000E-02


          HEAT OF FORMATION =    -182.680617 KCALS/MOLE


          INTERNAL COORDINATE DERIVATIVES

   NUMBER  ATOM       BOND         ANGLE      DIHEDRAL

     1       C
     2       C      9.851549
     3       C      8.458826    -1.157497
     4       C    -28.543084   -19.577389   -15.276004
     5       C     36.748029    19.472637    25.505851
     6       C    -49.914525   -13.632554   -19.666355
     7       C      9.968966    -2.566225    -9.481898
     8       C      9.921714    49.408553    22.357913
     9       C    -20.542485   -41.530706   -16.261338
    10       C     17.271346    28.070754    19.828660
    11       C     -2.871253    -6.104015   -10.949591
    12       O     10.728860     8.217348     2.950491
    13       O    -11.007145   -49.738377    -7.078947
    14       C      4.773760   -37.100864     9.108770
    15       O    -39.075594    57.204863   -29.212373
    16       C     42.020155     5.619481    29.943446
    17       H     26.539638   -14.459578    23.628984
    18       H     -6.532968    -9.050086    -8.885962
    19       H     -8.850667    11.911778    -8.543873
    20       H    -10.680637     9.835787     9.495442
    21       H    -10.275732    -2.131562    18.325843
    22       H     -6.657787    14.491420    -7.317210
    23       H    -15.231672     4.518554     5.602310
    24       H     -2.674577   -13.764831    -3.627776
    25       H    -11.914411    -8.025656     4.951719
    26       C      0.932506     5.877250    14.134915
    27       C     12.707323     1.723423     7.397717
    28       C    -17.878041    17.836074     1.425554
    29       C      6.793970    -9.441555   -12.231914
    30       H     -0.084656   -19.122669    26.671407
    31       C     -4.817179     0.620452     5.402167
    32       C      0.257318    -5.196039     5.603482
    33       H     22.362078    -2.589302   -22.251379
    34       H      3.455994     4.603902    -9.947610
    35       O      4.961499    -0.182685    -6.642934
    36       H     -1.513318     6.126377    -6.386791
    37       O      2.050143     1.462349    29.702159
    38       H    -10.891843    -5.720686    -4.832511
    39       C     12.192706     7.907919   -22.356902
    40       H      1.024839   -12.055444    12.022227
    41       H     -5.756129    -5.836876     3.553072
    42       H      4.489942     7.169298     0.027533
    43       C      2.508712     9.053429     1.527608
    44       H      2.275415     8.677043    -2.705827
    45       H     -0.316443     0.293170     1.841856
    46       H      5.292010    -4.476659    -8.043590
    47       C      3.965560    -2.704710    -8.769991
    48       H      4.382076    -4.740482   -10.195663
    49       H     -1.361539    -0.265068     1.610501
    50       H     10.199473     0.065544    -5.171068
    51       C     10.220398     2.109066    -5.604845
    52       H      7.955189     0.962566    -5.767030
    53       H      0.759302     2.029379     8.044449
    54       H     -4.871745    -0.954555    -8.287126


          GRADIENT NORM = 195.19571



 ** GRADIENT IS TOO LARGE TO ALLOW FORCE MATRIX TO BE CALCULATED, (LIMIT=10) **



 EITHER ADD 'LET' OR REDUCE GRADIENT
 USING 'TS' OR OTHER GEOMETRY OPTIMIZER



 TOTAL CPU TIME:             1.38 SECONDS

 == MOPAC DONE ==
