 *******************************************************************************
 ** Site#:  958            For non-commercial use only         Version 9.015L **
 *******************************************************************************
 ** Cite this work as: MOPAC2009, James J. P. Stewart, Stewart Computational  **
 ** Chemistry, Version 9.015L web: HTTP://OpenMOPAC.net                       **
 *******************************************************************************
 **                                                                           **
 **                                MOPAC2009                                  **
 **                                                                           **
 *******************************************************************************

                            PM6 CALCULATION RESULTS


 *******************************************************************************
 *  CALCULATION DONE:                                Wed Sep  7 13:22:56 2011  *
 *  PM6      - The PM6 Hamiltonian to be used
 *  PDBOUT   - PRINT GEOMETY IN PDB FORMAT
 *  MOZYME   - USE LOCALIZED M.O.s IN SOLVING THE SCF EQUATIONS
 *
 *
 *
 *                 CHARGE ON SYSTEM =     0
 *
 *
 *
 *  EPS= 78.400
 *  RSOLV=  1.300
 *  LET      - OVERRIDE SOME SAFETY CHECKS
 *  XYZ      - CARTESIAN COORDINATE SYSTEM TO BE USED
 *  LBFGS    - USE THE LBFGS GEOMETRY OPTIMIZER
 *  1SCF     - DO 1 SCF AND THEN STOP 
 *  T=       - A TIME OF  0.3E+08 SECONDS REQUESTED
 *  DUMP=N   - RESTART FILE WRITTEN EVERY  4320.000 SECONDS
 *  DDMIN=   - MINIMUM TRUST RADIUS  0.000 ANG/RAD
 *  GNORM=   - EXIT WHEN GRADIENT NORM DROPS BELOW .150    
 *  RELSCF   - DEFAULT SCF CRITERION MULTIPLIED BY   0.100    
 *             (DEFAULT SCFCRT= 0.00010)
 *  MULLIK   - THE MULLIKEN ANALYSIS TO BE PERFORMED
 *******************************************************************************
 PM6 T=31460276 DUMP=4320 XYZ EPS=78.40 RSOLV=1.30 MULLIK LBFGS MOZYME PDBOUT +
 CHARGE=0 RELSCF=0.1 LET DDMIN=0.0 GNORM=0.15 1SCF
 SJ000001677-2_T001S001I001C02_001: Geometry optimization step

   ATOM   CHEMICAL          X               Y              Z
  NUMBER   SYMBOL      (ANGSTROMS)     (ANGSTROMS)    (ANGSTROMS)
 
     1       C         -2.5490000  *  -26.907000  *   11.971000  *
     2       C         -3.6190000  *  -27.518000  *   11.161000  *
     3       O         -3.3630000  *  -28.413000  *   10.380000  *
     4       C         -5.0080000  *  -27.031000  *   11.312000  *
     5       C         -5.9930000  *  -27.369000  *   10.395000  *
     6       C         -7.2850000  *  -26.895000  *   10.567000  *
     7       C         -7.5980000  *  -26.089000  *   11.645000  *
     8       C         -6.6250000  *  -25.742000  *   12.569000  *
     9       C         -5.3270000  *  -26.209000  *   12.409000  *
    10       C         -4.2610000  *  -25.860000  *   13.375000  *
    11       O         -4.5420000  *  -25.363000  *   14.448000  *
    12       C         -2.8500000  *  -26.126000  *   13.022000  *
    13      Br         -1.4620000  *  -25.358000  *   14.052000  *
    14       H         -5.7550000  *  -27.998000  *    9.549000  *
    15       H         -8.0530000  *  -27.156000  *    9.854000  *
    16       H         -8.6070000  *  -25.726000  *   11.767000  *
    17       H         -6.8740000  *  -25.111000  *   13.410000  *
    18       C         -1.1050000  *  -27.164000  *   11.620000  *
    19       H         -1.0500000  *  -27.670000  *   10.656000  *
    20       H         -0.5710000  *  -26.216000  *   11.564000  *
    21       H         -0.6520000  *  -27.793000  *   12.387000  *
 


          CARTESIAN COORDINATES 

    NO.       ATOM         X         Y         Z

     1         C       -2.5490  -26.9070   11.9710
     2         C       -3.6190  -27.5180   11.1610
     3         O       -3.3630  -28.4130   10.3800
     4         C       -5.0080  -27.0310   11.3120
     5         C       -5.9930  -27.3690   10.3950
     6         C       -7.2850  -26.8950   10.5670
     7         C       -7.5980  -26.0890   11.6450
     8         C       -6.6250  -25.7420   12.5690
     9         C       -5.3270  -26.2090   12.4090
    10         C       -4.2610  -25.8600   13.3750
    11         O       -4.5420  -25.3630   14.4480
    12         C       -2.8500  -26.1260   13.0220
    13        Br       -1.4620  -25.3580   14.0520
    14         H       -5.7550  -27.9980    9.5490
    15         H       -8.0530  -27.1560    9.8540
    16         H       -8.6070  -25.7260   11.7670
    17         H       -6.8740  -25.1110   13.4100
    18         C       -1.1050  -27.1640   11.6200
    19         H       -1.0500  -27.6700   10.6560
    20         H       -0.5710  -26.2160   11.5640
    21         H       -0.6520  -27.7930   12.3870

 General Reference for PM6:
 "Optimization of Parameters for Semiempirical Methods V: Modification of NDDO Approximations
 and Application to 70 Elements", J. J. P. Stewart, J. Mol. Mod., 13, 1173-1213 (2007)
 URL: http://www.springerlink.com/content/ar33482301010477/fulltext.pdf

           Empirical Formula: C11 H7 O2 Br  =    21 atoms



      MOLECULAR POINT GROUP   :   C1  
 
   NUMBER AND TYPES OF BONDS IDENTIFIED
 
         SIGMA BONDS               22
         LONE PAIRS                 7
         NORMAL PI BONDS            3
         AROMATIC RING PI BONDS     3
 

                  Ramachandran Angles
              Residue    phi    psi  omega

  
  SCF CRITERION =    0.1000E-02

 -------------------------------------------------------------------------------
 PM6 T=31460276 DUMP=4320 XYZ EPS=78.40 RSOLV=1.30 MULLIK LBFGS MOZYME PDBOUT +
 CHARGE=0 RELSCF=0.1 LET DDMIN=0.0 GNORM=0.15 1SCF
 SJ000001677-2_T001S001I001C02_001: Geometry optimization step



     1SCF WAS SPECIFIED, SO BFGS WAS NOT USED                 
     SCF FIELD WAS ACHIEVED                                   


                               PM6     CALCULATION
                                                       MOPAC2009 (Version: 9.015L)
                                                       Wed Sep  7 13:22:56 2011




          FINAL HEAT OF FORMATION =        -29.32423 KCAL =    -122.69258 KJ
          VAN DER WAALS AREA      =        213.78 SQUARE ANGSTROMS


          TOTAL ENERGY            =      -2253.42012 EV
          ELECTRONIC ENERGY       =     -12357.95352 EV
          CORE-CORE REPULSION     =      10104.53339 EV
          DIELECTRIC ENERGY       =         -0.50674 EV
          COSMO AREA              =        213.78 SQUARE ANGSTROMS
          COSMO VOLUME            =        229.19 CUBIC ANGSTROMS

          NO. OF FILLED LEVELS    =         35
          MOLECULAR WEIGHT        =        251.079

          MOLECULAR DIMENSIONS (Angstroms)

            Atom       Atom       Distance
            H    16    H    20     8.05348
            H    14    O    11     5.61750
            H    16    H    21     1.78025


          SCF CALCULATIONS        =          2
          COMPUTATION TIME        =          0.152 SECONDS




   ATOM           CHEMICAL             X               Y              Z
  NUMBER           SYMBOL         (ANGSTROMS)     (ANGSTROMS)    (ANGSTROMS)
 
     1       C(     1  C     )   -2.5490000  *  -26.907000  *   11.971000  *
     2       C(     2  C     )   -3.6190000  *  -27.518000  *   11.161000  *
     3       O(     3  O     )   -3.3630000  *  -28.413000  *   10.380000  *
     4       C(     4  C     )   -5.0080000  *  -27.031000  *   11.312000  *
     5       C(     5  C     )   -5.9930000  *  -27.369000  *   10.395000  *
     6       C(     6  C     )   -7.2850000  *  -26.895000  *   10.567000  *
     7       C(     7  C     )   -7.5980000  *  -26.089000  *   11.645000  *
     8       C(     8  C     )   -6.6250000  *  -25.742000  *   12.569000  *
     9       C(     9  C     )   -5.3270000  *  -26.209000  *   12.409000  *
    10       C(    10  C     )   -4.2610000  *  -25.860000  *   13.375000  *
    11       O(    11  O     )   -4.5420000  *  -25.363000  *   14.448000  *
    12       C(    12  C     )   -2.8500000  *  -26.126000  *   13.022000  *
    13      Br(    13 Br     )   -1.4620000  *  -25.358000  *   14.052000  *
    14       H(    14  C     )   -5.7550000  *  -27.998000  *    9.549000  *
    15       H(    15  C     )   -8.0530000  *  -27.156000  *    9.854000  *
    16       H(    16  C     )   -8.6070000  *  -25.726000  *   11.767000  *
    17       H(    17  C     )   -6.8740000  *  -25.111000  *   13.410000  *
    18       C(    18  C     )   -1.1050000  *  -27.164000  *   11.620000  *
    19       H(    19  C     )   -1.0500000  *  -27.670000  *   10.656000  *
    20       H(    20  C     )   -0.5710000  *  -26.216000  *   11.564000  *
    21       H(    21  C     )   -0.6520000  *  -27.793000  *   12.387000  *

           Empirical Formula: C11 H7 O2 Br  =    21 atoms



              NET ATOMIC CHARGES AND DIPOLE CONTRIBUTIONS

  ATOM NO.   TYPE          CHARGE      No. of ELECS.   s-Pop       p-Pop       d-Pop       
    1          C           0.031534        3.9685     1.12659     2.84188
    2          C           0.528341        3.4717     1.10255     2.36911
    3          O          -0.503563        6.5036     1.85167     4.65190
    4          C          -0.149734        4.1497     1.10203     3.04770
    5          C          -0.074947        4.0749     1.10627     2.96868
    6          C          -0.121256        4.1213     1.10812     3.01314
    7          C          -0.122822        4.1228     1.10781     3.01501
    8          C          -0.072915        4.0729     1.10639     2.96653
    9          C          -0.151965        4.1520     1.10215     3.04982
   10          C           0.574679        3.4253     1.09460     2.33072
   11          O          -0.527672        6.5277     1.85029     4.67738
   12          C          -0.199304        4.1993     1.13124     3.06807
   13         Br          -0.023019        7.0230     1.98696     5.02715     0.00891
   14          H           0.178569        0.8214     0.82143
   15          H           0.176109        0.8239     0.82389
   16          H           0.176218        0.8238     0.82378
   17          H           0.179568        0.8204     0.82043
   18          C          -0.474831        4.4748     1.08588     3.38895
   19          H           0.183737        0.8163     0.81626
   20          H           0.195327        0.8047     0.80467
   21          H           0.197946        0.8021     0.80205


          CARTESIAN COORDINATES 

    NO.       ATOM               X         Y         Z

     1         C                 -2.5490  -26.9070   11.9710
     2         C                 -3.6190  -27.5180   11.1610
     3         O                 -3.3630  -28.4130   10.3800
     4         C                 -5.0080  -27.0310   11.3120
     5         C                 -5.9930  -27.3690   10.3950
     6         C                 -7.2850  -26.8950   10.5670
     7         C                 -7.5980  -26.0890   11.6450
     8         C                 -6.6250  -25.7420   12.5690
     9         C                 -5.3270  -26.2090   12.4090
    10         C                 -4.2610  -25.8600   13.3750
    11         O                 -4.5420  -25.3630   14.4480
    12         C                 -2.8500  -26.1260   13.0220
    13        Br                 -1.4620  -25.3580   14.0520
    14         H                 -5.7550  -27.9980    9.5490
    15         H                 -8.0530  -27.1560    9.8540
    16         H                 -8.6070  -25.7260   11.7670
    17         H                 -6.8740  -25.1110   13.4100
    18         C                 -1.1050  -27.1640   11.6200
    19         H                 -1.0500  -27.6700   10.6560
    20         H                 -0.5710  -26.2160   11.5640
    21         H                 -0.6520  -27.7930   12.3870


          ATOMIC ORBITAL ELECTRON POPULATIONS

   1.12659   1.00236   0.90750   0.93202   1.10255   0.88914   0.74632   0.73365
   1.85167   1.85909   1.37449   1.41832   1.10203   0.99886   1.03753   1.01131
   1.10627   0.96621   0.98061   1.02185   1.10812   1.02700   0.96667   1.01947
   1.10781   1.07193   0.97438   0.96870   1.10639   0.95427   0.98221   1.03005
   1.10215   1.00536   1.03922   1.00524   1.09460   0.86985   0.65927   0.80160
   1.85029   1.86023   1.44334   1.37381   1.13124   0.97370   1.06806   1.02632
   1.98696   1.48655   1.82577   1.71482   0.00168   0.00255   0.00128   0.00176
   0.00164   0.82143   0.82389   0.82378   0.82043   1.08588   0.99911   1.19666
   1.19318   0.81626   0.80467   0.80205

           MULLIKEN POPULATION ANALYSIS



        MULLIKEN POPULATIONS AND CHARGES

      NO.  ATOM   POPULATION      CHARGE
        1    C     3.991054      0.008946
        2    C     3.443799      0.556201
        3    O     6.525943     -0.525943
        4    C     4.164998     -0.164998
        5    C     4.118902     -0.118902
        6    C     4.177338     -0.177338
        7    C     4.179283     -0.179283
        8    C     4.116888     -0.116888
        9    C     4.168809     -0.168809
       10    C     3.400058      0.599942
       11    O     6.553189     -0.553189
       12    C     4.378918     -0.378918
       13   Br     6.810071      0.189929
       14    H     0.764563      0.235437
       15    H     0.767477      0.232523
       16    H     0.767225      0.232775
       17    H     0.763256      0.236744
       18    C     4.627077     -0.627077
       19    H     0.763716      0.236284
       20    H     0.762941      0.237059
       21    H     0.754495      0.245505



 TOTAL CPU TIME:             0.15 SECONDS

 == MOPAC DONE ==
 *******************************************************************************
 ** Site#:  958            For non-commercial use only         Version 9.015L **
 *******************************************************************************
 ** Cite this work as: MOPAC2009, James J. P. Stewart, Stewart Computational  **
 ** Chemistry, Version 9.015L web: HTTP://OpenMOPAC.net                       **
 *******************************************************************************
 **                                                                           **
 **                                MOPAC2009                                  **
 **                                                                           **
 *******************************************************************************

                            PM6 CALCULATION RESULTS


 *******************************************************************************
 *  CALCULATION DONE:                                Wed Sep  7 13:22:56 2011  *
 *  PM6      - The PM6 Hamiltonian to be used
 *  GEO-OK   - OVERRIDE INTERATOMIC DISTANCE CHECK
 *  MOZYME   - USE LOCALIZED M.O.s IN SOLVING THE SCF EQUATIONS
 *
 *
 *
 *                 CHARGE ON SYSTEM =     0
 *
 *
 *
 *  EPS= 78.400
 *  RSOLV=  1.300
 *  OLDGEO   - PREVIOUS GEOMETRY TO BE USED
 *  T=       - A TIME OF 172800.0 SECONDS REQUESTED
 *  DUMP=N   - RESTART FILE WRITTEN EVERY  4320.000 SECONDS
 *  RELSCF   - DEFAULT SCF CRITERION MULTIPLIED BY   0.100    
 *             (DEFAULT SCFCRT= 0.00010)
 *  THERMO   - THERMODYNAMIC QUANTITIES TO BE CALCULATED
 *******************************************************************************
 PM6 DUMP=4320 MOZYME RELSCF=0.1 THERMO EPS=78.40 RSOLV=1.30 +
 OLDGEO GEO-OK CHARGE=0
 SJ000001677-2_T001S001I001C02_001: Free energy calculation

   ATOM           CHEMICAL             X               Y              Z
  NUMBER           SYMBOL         (ANGSTROMS)     (ANGSTROMS)    (ANGSTROMS)
 
     1       C(     1  C     )   -2.5490000  *  -26.907000  *   11.971000  *
     2       C(     2  C     )   -3.6190000  *  -27.518000  *   11.161000  *
     3       O(     3  O     )   -3.3630000  *  -28.413000  *   10.380000  *
     4       C(     4  C     )   -5.0080000  *  -27.031000  *   11.312000  *
     5       C(     5  C     )   -5.9930000  *  -27.369000  *   10.395000  *
     6       C(     6  C     )   -7.2850000  *  -26.895000  *   10.567000  *
     7       C(     7  C     )   -7.5980000  *  -26.089000  *   11.645000  *
     8       C(     8  C     )   -6.6250000  *  -25.742000  *   12.569000  *
     9       C(     9  C     )   -5.3270000  *  -26.209000  *   12.409000  *
    10       C(    10  C     )   -4.2610000  *  -25.860000  *   13.375000  *
    11       O(    11  O     )   -4.5420000  *  -25.363000  *   14.448000  *
    12       C(    12  C     )   -2.8500000  *  -26.126000  *   13.022000  *
    13      Br(    13 Br     )   -1.4620000  *  -25.358000  *   14.052000  *
    14       H(    14  C     )   -5.7550000  *  -27.998000  *    9.549000  *
    15       H(    15  C     )   -8.0530000  *  -27.156000  *    9.854000  *
    16       H(    16  C     )   -8.6070000  *  -25.726000  *   11.767000  *
    17       H(    17  C     )   -6.8740000  *  -25.111000  *   13.410000  *
    18       C(    18  C     )   -1.1050000  *  -27.164000  *   11.620000  *
    19       H(    19  C     )   -1.0500000  *  -27.670000  *   10.656000  *
    20       H(    20  C     )   -0.5710000  *  -26.216000  *   11.564000  *
    21       H(    21  C     )   -0.6520000  *  -27.793000  *   12.387000  *
 


          CARTESIAN COORDINATES 

    NO.       ATOM         X         Y         Z

     1         C       -2.5490  -26.9070   11.9710
     2         C       -3.6190  -27.5180   11.1610
     3         O       -3.3630  -28.4130   10.3800
     4         C       -5.0080  -27.0310   11.3120
     5         C       -5.9930  -27.3690   10.3950
     6         C       -7.2850  -26.8950   10.5670
     7         C       -7.5980  -26.0890   11.6450
     8         C       -6.6250  -25.7420   12.5690
     9         C       -5.3270  -26.2090   12.4090
    10         C       -4.2610  -25.8600   13.3750
    11         O       -4.5420  -25.3630   14.4480
    12         C       -2.8500  -26.1260   13.0220
    13        Br       -1.4620  -25.3580   14.0520
    14         H       -5.7550  -27.9980    9.5490
    15         H       -8.0530  -27.1560    9.8540
    16         H       -8.6070  -25.7260   11.7670
    17         H       -6.8740  -25.1110   13.4100
    18         C       -1.1050  -27.1640   11.6200
    19         H       -1.0500  -27.6700   10.6560
    20         H       -0.5710  -26.2160   11.5640
    21         H       -0.6520  -27.7930   12.3870

 General Reference for PM6:
 "Optimization of Parameters for Semiempirical Methods V: Modification of NDDO Approximations
 and Application to 70 Elements", J. J. P. Stewart, J. Mol. Mod., 13, 1173-1213 (2007)
 URL: http://www.springerlink.com/content/ar33482301010477/fulltext.pdf

           Empirical Formula: C11 H7 O2 Br  =    21 atoms



      MOLECULAR POINT GROUP   :   C1  
 
   NUMBER AND TYPES OF BONDS IDENTIFIED
 
         SIGMA BONDS               22
         LONE PAIRS                 7
         NORMAL PI BONDS            3
         AROMATIC RING PI BONDS     3
 
  SCF CRITERION =    0.1000E-02


          HEAT OF FORMATION =     -29.322196 KCALS/MOLE


          INTERNAL COORDINATE DERIVATIVES

   NUMBER  ATOM       BOND         ANGLE      DIHEDRAL

     1       C
     2       C     39.177873
     3       O    -10.263619     3.297545
     4       C    -24.944786   -12.207928     1.461075
     5       C     -5.069830   -11.340019     0.243427
     6       C      9.762686     5.490844    -0.770721
     7       C      2.111533   -14.180995     0.873311
     8       C    -12.750541     4.054686     2.246795
     9       C     -9.814405     9.689192     1.039986
    10       C     15.380987     2.332378    -3.934290
    11       O      0.819110   -11.603253     2.982143
    12       C     11.903858    17.210042    -6.469756
    13      Br      7.189847     8.592204    -4.217772
    14       H     -4.252485    -7.036427     3.687937
    15       H      1.096985    11.080420    -3.874854
    16       H     -4.830267    -9.157860     1.984405
    17       H    -10.753112    -0.176567     2.245971
    18       C     -5.025181    10.306921    -0.175642
    19       H      5.815189     8.689948    -2.248483
    20       H    -27.534899    20.278640    -3.800286
    21       H      0.278091    -9.721067     2.620985


          GRADIENT NORM =  80.59704



 ** GRADIENT IS TOO LARGE TO ALLOW FORCE MATRIX TO BE CALCULATED, (LIMIT=10) **



 EITHER ADD 'LET' OR REDUCE GRADIENT
 USING 'TS' OR OTHER GEOMETRY OPTIMIZER



 TOTAL CPU TIME:             0.36 SECONDS

 == MOPAC DONE ==
