 *******************************************************************************
 ** Site#:  958            For non-commercial use only         Version 9.015L **
 *******************************************************************************
 ** Cite this work as: MOPAC2009, James J. P. Stewart, Stewart Computational  **
 ** Chemistry, Version 9.015L web: HTTP://OpenMOPAC.net                       **
 *******************************************************************************
 **                                                                           **
 **                                MOPAC2009                                  **
 **                                                                           **
 *******************************************************************************

                            PM6 CALCULATION RESULTS


 *******************************************************************************
 *  CALCULATION DONE:                                Tue Sep  6 16:28:09 2011  *
 *  PM6      - The PM6 Hamiltonian to be used
 *
 *
 *
 *                 CHARGE ON SYSTEM =     0
 *
 *
 *
 *  EPS= 78.400
 *  RSOLV=  1.300
 *  LET      - OVERRIDE SOME SAFETY CHECKS
 *  XYZ      - CARTESIAN COORDINATE SYSTEM TO BE USED
 *  T=       - A TIME OF  0.3E+08 SECONDS REQUESTED
 *  DUMP=N   - RESTART FILE WRITTEN EVERY  4320.000 SECONDS
 *  DDMIN=   - MINIMUM TRUST RADIUS  0.000 ANG/RAD
 *  GNORM=   - EXIT WHEN GRADIENT NORM DROPS BELOW .150    
 *  RELSCF   - DEFAULT SCF CRITERION MULTIPLIED BY   0.100    
 *             (DEFAULT SCFCRT= 0.00010)
 *  SYBYL    - OUTPUT SYBYL FILE
 *  MULLIK   - THE MULLIKEN ANALYSIS TO BE PERFORMED
 *******************************************************************************
 PM6 T=31535563 DUMP=4320 XYZ EPS=78.40 RSOLV=1.30 MULLIK SYBYL +
 CHARGE=0 RELSCF=0.1 LET DDMIN=0.0 GNORM=0.15
 SJ000002349-1_T001S001I001C09: Geometry optimization step

   ATOM   CHEMICAL          X               Y              Z
  NUMBER   SYMBOL      (ANGSTROMS)     (ANGSTROMS)    (ANGSTROMS)
 
     1       C          0.0020000  *   -0.004000  *    0.002000  *
     2       C          0.7390000  *   -0.528000  *    1.235000  *
     3       C          0.7710000  *   -2.038000  *    1.225000  *
     4       C         -0.2570000  *   -2.718000  *    0.673000  *
     5       C         -0.1930000  *   -4.232000  *    0.676000  *
     6       C          1.0400000  *   -4.843000  *    1.309000  *
     7       C          1.9720000  *   -4.009000  *    1.819000  *
     8       C          3.2110000  *   -4.586000  *    2.460000  *
     9       C          2.8920000  *   -5.928000  *    3.120000  *
    10       C          2.4190000  *   -6.847000  *    1.992000  *
    11       C          1.1980000  *   -6.234000  *    1.356000  *
    12       O          0.3420000  *   -6.953000  *    0.880000  *
    13       O          1.8190000  *   -2.678000  *    1.764000  *
    14       C         -1.3580000  *   -2.057000  *    0.113000  *
    15       O         -2.2680000  *   -2.702000  *   -0.367000  *
    16       C         -1.4230000  *   -0.552000  *    0.101000  *
    17       H          1.7590000  *   -0.146000  *    1.234000  *
    18       H          0.2260000  *   -0.185000  *    2.134000  *
    19       H         -1.0670000  *   -4.609000  *    1.207000  *
    20       H          3.9770000  *   -4.732000  *    1.698000  *
    21       H          3.5830000  *   -3.893000  *    3.215000  *
    22       H          3.2080000  *   -6.949000  *    1.247000  *
    23       H          2.1680000  *   -7.827000  *    2.398000  *
    24       H         -1.8890000  *   -0.198000  *    1.020000  *
    25       H         -2.0050000  *   -0.217000  *   -0.758000  *
    26       C         -0.2720000  *   -4.708000  *   -0.752000  *
    27       C         -1.3090000  *   -5.541000  *   -1.149000  *
    28       C         -1.3810000  *   -5.978000  *   -2.462000  *
    29       C         -0.4170000  *   -5.582000  *   -3.376000  *
    30       H         -2.1870000  *   -6.627000  *   -2.773000  *
    31       C          0.6180000  *   -4.750000  *   -2.975000  *
    32       C          0.6850000  *   -4.310000  *   -1.667000  *
    33       H          1.3690000  *   -4.441000  *   -3.687000  *
    34       H          1.4910000  *   -3.662000  *   -1.356000  *
    35       O         -2.2520000  *   -5.926000  *   -0.250000  *
    36       H         -3.0130000  *   -5.332000  *   -0.199000  *
    37       O         -0.4860000  *   -6.010000  *   -4.665000  *
    38       H         -0.9930000  *   -5.426000  *   -5.246000  *
    39       C         -0.0190000  *    1.526000  *    0.010000  *
    40       H          1.0040000  *    1.903000  *    0.003000  *
    41       H         -0.5460000  *    1.887000  *   -0.873000  *
    42       H         -0.5290000  *    1.877000  *    0.907000  *
    43       C          0.6770000  *   -0.515000  *   -1.273000  *
    44       H          1.7000000  *   -0.144000  *   -1.316000  *
    45       H          0.6850000  *   -1.605000  *   -1.267000  *
    46       H          0.1240000  *   -0.161000  *   -2.143000  *
    47       C          4.1460000  *   -6.504000  *    3.779000  *
    48       H          4.5090000  *   -5.811000  *    4.538000  *
    49       H          3.9050000  *   -7.460000  *    4.245000  *
    50       H          4.9180000  *   -6.653000  *    3.024000  *
    51       C          1.7820000  *   -5.754000  *    4.159000  *
    52       H          0.8850000  *   -5.373000  *    3.672000  *
    53       H          1.5630000  *   -6.716000  *    4.621000  *
    54       H          2.1080000  *   -5.049000  *    4.924000  *
 


          CARTESIAN COORDINATES 

    NO.       ATOM         X         Y         Z

     1         C        0.0020   -0.0040    0.0020
     2         C        0.7390   -0.5280    1.2350
     3         C        0.7710   -2.0380    1.2250
     4         C       -0.2570   -2.7180    0.6730
     5         C       -0.1930   -4.2320    0.6760
     6         C        1.0400   -4.8430    1.3090
     7         C        1.9720   -4.0090    1.8190
     8         C        3.2110   -4.5860    2.4600
     9         C        2.8920   -5.9280    3.1200
    10         C        2.4190   -6.8470    1.9920
    11         C        1.1980   -6.2340    1.3560
    12         O        0.3420   -6.9530    0.8800
    13         O        1.8190   -2.6780    1.7640
    14         C       -1.3580   -2.0570    0.1130
    15         O       -2.2680   -2.7020   -0.3670
    16         C       -1.4230   -0.5520    0.1010
    17         H        1.7590   -0.1460    1.2340
    18         H        0.2260   -0.1850    2.1340
    19         H       -1.0670   -4.6090    1.2070
    20         H        3.9770   -4.7320    1.6980
    21         H        3.5830   -3.8930    3.2150
    22         H        3.2080   -6.9490    1.2470
    23         H        2.1680   -7.8270    2.3980
    24         H       -1.8890   -0.1980    1.0200
    25         H       -2.0050   -0.2170   -0.7580
    26         C       -0.2720   -4.7080   -0.7520
    27         C       -1.3090   -5.5410   -1.1490
    28         C       -1.3810   -5.9780   -2.4620
    29         C       -0.4170   -5.5820   -3.3760
    30         H       -2.1870   -6.6270   -2.7730
    31         C        0.6180   -4.7500   -2.9750
    32         C        0.6850   -4.3100   -1.6670
    33         H        1.3690   -4.4410   -3.6870
    34         H        1.4910   -3.6620   -1.3560
    35         O       -2.2520   -5.9260   -0.2500
    36         H       -3.0130   -5.3320   -0.1990
    37         O       -0.4860   -6.0100   -4.6650
    38         H       -0.9930   -5.4260   -5.2460
    39         C       -0.0190    1.5260    0.0100
    40         H        1.0040    1.9030    0.0030
    41         H       -0.5460    1.8870   -0.8730
    42         H       -0.5290    1.8770    0.9070
    43         C        0.6770   -0.5150   -1.2730
    44         H        1.7000   -0.1440   -1.3160
    45         H        0.6850   -1.6050   -1.2670
    46         H        0.1240   -0.1610   -2.1430
    47         C        4.1460   -6.5040    3.7790
    48         H        4.5090   -5.8110    4.5380
    49         H        3.9050   -7.4600    4.2450
    50         H        4.9180   -6.6530    3.0240
    51         C        1.7820   -5.7540    4.1590
    52         H        0.8850   -5.3730    3.6720
    53         H        1.5630   -6.7160    4.6210
    54         H        2.1080   -5.0490    4.9240

 General Reference for PM6:
 "Optimization of Parameters for Semiempirical Methods V: Modification of NDDO Approximations
 and Application to 70 Elements", J. J. P. Stewart, J. Mol. Mod., 13, 1173-1213 (2007)
 URL: http://www.springerlink.com/content/ar33482301010477/fulltext.pdf

           Empirical Formula: C23 H26 O5  =    54 atoms



      MOLECULAR POINT GROUP   :   C1  


      RHF CALCULATION, NO. OF DOUBLY OCCUPIED LEVELS =   74

      Geometry optimization using EF
  SCF CRITERION =    0.1000E-04

          DIAGONAL MATRIX USED AS START HESSIAN

 CYCLE:     1 TIME:   0.267 TIME LEFT: 16.53W  GRAD.:   210.411 HEAT:-187.7242
 CYCLE:     2 TIME:   0.148 TIME LEFT: 16.53W  GRAD.:   201.009 HEAT:-197.7899
 CYCLE:     3 TIME:   0.145 TIME LEFT: 16.53W  GRAD.:   234.355 HEAT:-199.7752
 CYCLE:     4 TIME:   0.146 TIME LEFT: 16.53W  GRAD.:   216.768 HEAT:-199.7234
 CYCLE:     5 TIME:   0.145 TIME LEFT: 16.53W  GRAD.:   317.182 HEAT:-196.6322
 CYCLE:     6 TIME:   0.145 TIME LEFT: 16.53W  GRAD.:   311.383 HEAT:-192.7761
 CYCLE:     7 TIME:   0.146 TIME LEFT: 16.53W  GRAD.:   167.898 HEAT:-205.5609
 CYCLE:     8 TIME:   0.146 TIME LEFT: 16.53W  GRAD.:   205.443 HEAT:-202.7905
 CYCLE:     9 TIME:   0.146 TIME LEFT: 16.53W  GRAD.:   310.665 HEAT:-195.4946
 CYCLE:    10 TIME:   0.146 TIME LEFT: 16.53W  GRAD.:   225.251 HEAT:-202.6158
 CYCLE:    11 TIME:   0.143 TIME LEFT: 16.53W  GRAD.:   315.840 HEAT:-195.0210
 CYCLE:    12 TIME:   0.147 TIME LEFT: 16.53W  GRAD.:   240.032 HEAT:-200.8847
 CYCLE:    13 TIME:   0.143 TIME LEFT: 16.53W  GRAD.:   260.153 HEAT:-202.5918
 CYCLE:    14 TIME:   0.142 TIME LEFT: 16.53W  GRAD.:   252.889 HEAT:-197.5593
 CYCLE:    15 TIME:   0.157 TIME LEFT: 16.53W  GRAD.:   192.365 HEAT:-205.7725
 CYCLE:    16 TIME:   0.146 TIME LEFT: 16.53W  GRAD.:   258.570 HEAT:-199.7926
 CYCLE:    17 TIME:   0.147 TIME LEFT: 16.53W  GRAD.:   309.682 HEAT:-197.7075
 CYCLE:    18 TIME:   0.157 TIME LEFT: 16.53W  GRAD.:   192.210 HEAT:-206.4240
 CYCLE:    19 TIME:   0.152 TIME LEFT: 16.53W  GRAD.:   250.795 HEAT:-201.5069
 CYCLE:    20 TIME:   0.143 TIME LEFT: 16.53W  GRAD.:   268.860 HEAT:-199.1745
 CYCLE:    21 TIME:   0.145 TIME LEFT: 16.53W  GRAD.:   243.400 HEAT:-204.4563
 CYCLE:    22 TIME:   0.146 TIME LEFT: 16.53W  GRAD.:   262.883 HEAT:-200.3300
 CYCLE:    23 TIME:   0.146 TIME LEFT: 16.53W  GRAD.:   274.604 HEAT:-200.5686
 CYCLE:    24 TIME:   0.156 TIME LEFT: 16.53W  GRAD.:   178.466 HEAT:-207.1579
 CYCLE:    25 TIME:   0.144 TIME LEFT: 16.53W  GRAD.:   262.518 HEAT:-203.3107
 CYCLE:    26 TIME:   0.147 TIME LEFT: 16.53W  GRAD.:   160.610 HEAT:-210.1010
 CYCLE:    27 TIME:   0.144 TIME LEFT: 16.53W  GRAD.:   240.815 HEAT:-203.5342
 CYCLE:    28 TIME:   0.145 TIME LEFT: 16.53W  GRAD.:   172.599 HEAT:-209.6594
 CYCLE:    29 TIME:   0.145 TIME LEFT: 16.53W  GRAD.:   172.529 HEAT:-208.8217
 CYCLE:    30 TIME:   0.145 TIME LEFT: 16.53W  GRAD.:   225.158 HEAT:-203.9248
 CYCLE:    31 TIME:   0.145 TIME LEFT: 16.53W  GRAD.:   180.987 HEAT:-209.5075
 CYCLE:    32 TIME:   0.142 TIME LEFT: 16.53W  GRAD.:   232.207 HEAT:-204.6240
 CYCLE:    33 TIME:   0.145 TIME LEFT: 16.53W  GRAD.:   161.238 HEAT:-210.1978
 CYCLE:    34 TIME:   0.149 TIME LEFT: 16.53W  GRAD.:   193.921 HEAT:-208.0430
 CYCLE:    35 TIME:   0.144 TIME LEFT: 16.53W  GRAD.:   167.263 HEAT:-209.4021
 CYCLE:    36 TIME:   0.160 TIME LEFT: 16.53W  GRAD.:   182.343 HEAT:-210.5191
 CYCLE:    37 TIME:   0.146 TIME LEFT: 16.53W  GRAD.:   173.599 HEAT:-208.3637
 CYCLE:    38 TIME:   0.145 TIME LEFT: 16.53W  GRAD.:   164.681 HEAT:-212.2154
 CYCLE:    39 TIME:   0.143 TIME LEFT: 16.53W  GRAD.:   174.060 HEAT:-208.9122
 CYCLE:    40 TIME:   0.144 TIME LEFT: 16.53W  GRAD.:   190.173 HEAT:-210.6268
 CYCLE:    41 TIME:   0.150 TIME LEFT: 16.53W  GRAD.:   138.501 HEAT:-213.0904
 CYCLE:    42 TIME:   0.144 TIME LEFT: 16.53W  GRAD.:   189.153 HEAT:-210.2468
 CYCLE:    43 TIME:   0.144 TIME LEFT: 16.53W  GRAD.:   132.664 HEAT:-213.4173
 CYCLE:    44 TIME:   0.149 TIME LEFT: 16.53W  GRAD.:   193.843 HEAT:-211.0554
 CYCLE:    45 TIME:   0.149 TIME LEFT: 16.53W  GRAD.:   122.646 HEAT:-215.3988
 CYCLE:    46 TIME:   0.146 TIME LEFT: 16.53W  GRAD.:   174.195 HEAT:-212.1342
 CYCLE:    47 TIME:   0.146 TIME LEFT: 16.53W  GRAD.:   151.609 HEAT:-212.4993
 CYCLE:    48 TIME:   0.150 TIME LEFT: 16.53W  GRAD.:   156.363 HEAT:-215.0511
 CYCLE:    49 TIME:   0.144 TIME LEFT: 16.53W  GRAD.:   146.140 HEAT:-213.4200
 CYCLE:    50 TIME:   0.144 TIME LEFT: 16.53W  GRAD.:   139.305 HEAT:-216.0502
 CYCLE:    51 TIME:   0.143 TIME LEFT: 16.53W  GRAD.:   153.093 HEAT:-213.7960
 CYCLE:    52 TIME:   0.145 TIME LEFT: 16.53W  GRAD.:   164.335 HEAT:-214.2329
 CYCLE:    53 TIME:   0.144 TIME LEFT: 16.53W  GRAD.:   152.110 HEAT:-214.8924
 CYCLE:    54 TIME:   0.144 TIME LEFT: 16.53W  GRAD.:   113.984 HEAT:-218.1000
 CYCLE:    55 TIME:   0.144 TIME LEFT: 16.53W  GRAD.:   193.898 HEAT:-211.3708
 CYCLE:    56 TIME:   0.149 TIME LEFT: 16.53W  GRAD.:   113.350 HEAT:-218.6061
 CYCLE:    57 TIME:   0.141 TIME LEFT: 16.53W  GRAD.:   175.072 HEAT:-213.9423
 CYCLE:    58 TIME:   0.141 TIME LEFT: 16.53W  GRAD.:   143.461 HEAT:-216.3034
 CYCLE:    59 TIME:   0.143 TIME LEFT: 16.53W  GRAD.:   162.458 HEAT:-216.6365
 CYCLE:    60 TIME:   0.143 TIME LEFT: 16.53W  GRAD.:    96.430 HEAT:-220.1592
 CYCLE:    61 TIME:   0.143 TIME LEFT: 16.53W  GRAD.:   192.105 HEAT:-213.4894
 CYCLE:    62 TIME:   0.141 TIME LEFT: 16.53W  GRAD.:   111.571 HEAT:-219.3929
 CYCLE:    63 TIME:   0.146 TIME LEFT: 16.53W  GRAD.:   164.697 HEAT:-216.1983
 CYCLE:    64 TIME:   0.144 TIME LEFT: 16.53W  GRAD.:    81.765 HEAT:-222.3033
 CYCLE:    65 TIME:   0.141 TIME LEFT: 16.53W  GRAD.:   184.538 HEAT:-213.6955
 CYCLE:    66 TIME:   0.148 TIME LEFT: 16.53W  GRAD.:    62.359 HEAT:-223.6668
 CYCLE:    67 TIME:   0.140 TIME LEFT: 16.53W  GRAD.:   180.319 HEAT:-213.7500
 CYCLE:    68 TIME:   0.156 TIME LEFT: 16.53W  GRAD.:    64.684 HEAT:-224.0102
 CYCLE:    69 TIME:   0.140 TIME LEFT: 16.53W  GRAD.:   165.710 HEAT:-215.0970
 CYCLE:    70 TIME:   0.163 TIME LEFT: 16.53W  GRAD.:    67.429 HEAT:-224.1549
 CYCLE:    71 TIME:   0.141 TIME LEFT: 16.53W  GRAD.:   154.088 HEAT:-216.0235
 CYCLE:    72 TIME:   0.144 TIME LEFT: 16.53W  GRAD.:    37.769 HEAT:-225.6794
 CYCLE:    73 TIME:   0.140 TIME LEFT: 16.53W  GRAD.:   165.672 HEAT:-216.1783
 CYCLE:    74 TIME:   0.148 TIME LEFT: 16.53W  GRAD.:    36.574 HEAT:-226.0249
 CYCLE:    75 TIME:   0.141 TIME LEFT: 16.53W  GRAD.:   136.585 HEAT:-218.9060
 CYCLE:    76 TIME:   0.141 TIME LEFT: 16.53W  GRAD.:    45.721 HEAT:-226.0705
 CYCLE:    77 TIME:   0.146 TIME LEFT: 16.53W  GRAD.:   158.989 HEAT:-215.2909
 CYCLE:    78 TIME:   0.143 TIME LEFT: 16.53W  GRAD.:    39.568 HEAT:-226.4963
 CYCLE:    79 TIME:   0.142 TIME LEFT: 16.53W  GRAD.:   174.865 HEAT:-214.6818
 CYCLE:    80 TIME:   0.141 TIME LEFT: 16.53W  GRAD.:    25.573 HEAT:-227.2268
 CYCLE:    81 TIME:   0.141 TIME LEFT: 16.53W  GRAD.:   105.502 HEAT:-222.8021
 CYCLE:    82 TIME:   0.141 TIME LEFT: 16.53W  GRAD.:    23.875 HEAT:-227.3770
 CYCLE:    83 TIME:   0.134 TIME LEFT: 16.53W  GRAD.:    87.044 HEAT:-224.2889
 CYCLE:    84 TIME:   0.134 TIME LEFT: 16.53W  GRAD.:    17.675 HEAT:-227.7978
 CYCLE:    85 TIME:   0.137 TIME LEFT: 16.53W  GRAD.:    73.009 HEAT:-225.9493
 CYCLE:    86 TIME:   0.134 TIME LEFT: 16.53W  GRAD.:    10.570 HEAT:-228.0369
 CYCLE:    87 TIME:   0.132 TIME LEFT: 16.53W  GRAD.:    28.025 HEAT:-227.8735
 CYCLE:    88 TIME:   0.132 TIME LEFT: 16.53W  GRAD.:    20.005 HEAT:-228.3649
 CYCLE:    89 TIME:   0.137 TIME LEFT: 16.53W  GRAD.:    41.919 HEAT:-227.8867
 CYCLE:    90 TIME:   0.134 TIME LEFT: 16.53W  GRAD.:    14.405 HEAT:-228.9248
 CYCLE:    91 TIME:   0.132 TIME LEFT: 16.53W  GRAD.:    51.376 HEAT:-228.0046
 CYCLE:    92 TIME:   0.136 TIME LEFT: 16.53W  GRAD.:    15.565 HEAT:-229.1840
 CYCLE:    93 TIME:   0.132 TIME LEFT: 16.53W  GRAD.:    45.837 HEAT:-228.2482
 CYCLE:    94 TIME:   0.133 TIME LEFT: 16.53W  GRAD.:    10.438 HEAT:-229.2847
 CYCLE:    95 TIME:   0.133 TIME LEFT: 16.53W  GRAD.:    42.807 HEAT:-228.5827
 CYCLE:    96 TIME:   0.134 TIME LEFT: 16.53W  GRAD.:     7.263 HEAT:-229.3155
 CYCLE:    97 TIME:   0.132 TIME LEFT: 16.53W  GRAD.:    20.213 HEAT:-229.1482
 CYCLE:    98 TIME:   0.128 TIME LEFT: 16.53W  GRAD.:     7.037 HEAT:-229.3720
 CYCLE:    99 TIME:   0.128 TIME LEFT: 16.53W  GRAD.:    26.667 HEAT:-229.0807
 CYCLE:   100 TIME:   0.129 TIME LEFT: 16.53W  GRAD.:     4.893 HEAT:-229.4147
 CYCLE:   101 TIME:   0.127 TIME LEFT: 16.53W  GRAD.:    14.538 HEAT:-229.3058
 CYCLE:   102 TIME:   0.129 TIME LEFT: 16.53W  GRAD.:     3.825 HEAT:-229.4344
 CYCLE:   103 TIME:   0.129 TIME LEFT: 16.53W  GRAD.:    14.561 HEAT:-229.3749
 CYCLE:   104 TIME:   0.128 TIME LEFT: 16.53W  GRAD.:     3.227 HEAT:-229.4648
 CYCLE:   105 TIME:   0.128 TIME LEFT: 16.53W  GRAD.:    10.556 HEAT:-229.4440
 CYCLE:   106 TIME:   0.128 TIME LEFT: 16.53W  GRAD.:     3.703 HEAT:-229.5153
 CYCLE:   107 TIME:   0.133 TIME LEFT: 16.53W  GRAD.:    15.126 HEAT:-229.3731
 CYCLE:   108 TIME:   0.128 TIME LEFT: 16.53W  GRAD.:     2.615 HEAT:-229.5728
 CYCLE:   109 TIME:   0.133 TIME LEFT: 16.53W  GRAD.:     5.133 HEAT:-229.5295
 CYCLE:   110 TIME:   0.133 TIME LEFT: 16.53W  GRAD.:     9.158 HEAT:-229.5933
 CYCLE:   111 TIME:   0.134 TIME LEFT: 16.53W  GRAD.:    11.078 HEAT:-229.6100
 CYCLE:   112 TIME:   0.128 TIME LEFT: 16.53W  GRAD.:     5.680 HEAT:-229.6612
 CYCLE:   113 TIME:   0.128 TIME LEFT: 16.53W  GRAD.:    11.075 HEAT:-229.7195
 CYCLE:   114 TIME:   0.128 TIME LEFT: 16.53W  GRAD.:     8.023 HEAT:-229.7595
 CYCLE:   115 TIME:   0.133 TIME LEFT: 16.53W  GRAD.:    17.167 HEAT:-229.7224
 CYCLE:   116 TIME:   0.129 TIME LEFT: 16.53W  GRAD.:     7.720 HEAT:-229.8170
 CYCLE:   117 TIME:   0.132 TIME LEFT: 16.53W  GRAD.:     9.990 HEAT:-229.7801
 CYCLE:   118 TIME:   0.134 TIME LEFT: 16.53W  GRAD.:     6.526 HEAT:-229.8497
 CYCLE:   119 TIME:   0.134 TIME LEFT: 16.53W  GRAD.:    12.760 HEAT:-229.8415
 CYCLE:   120 TIME:   0.128 TIME LEFT: 16.53W  GRAD.:     8.619 HEAT:-229.9212
 CYCLE:   121 TIME:   0.133 TIME LEFT: 16.53W  GRAD.:    14.442 HEAT:-229.8549
 CYCLE:   122 TIME:   0.132 TIME LEFT: 16.53W  GRAD.:     3.905 HEAT:-229.9635
 CYCLE:   123 TIME:   0.128 TIME LEFT: 16.53W  GRAD.:     6.029 HEAT:-229.9582
 CYCLE:   124 TIME:   0.127 TIME LEFT: 16.53W  GRAD.:     3.329 HEAT:-229.9773
 CYCLE:   125 TIME:   0.134 TIME LEFT: 16.53W  GRAD.:    13.918 HEAT:-229.9712
 CYCLE:   126 TIME:   0.135 TIME LEFT: 16.53W  GRAD.:     5.721 HEAT:-230.0503
 CYCLE:   127 TIME:   0.129 TIME LEFT: 16.53W  GRAD.:     8.283 HEAT:-230.0898
 CYCLE:   128 TIME:   0.129 TIME LEFT: 16.53W  GRAD.:     2.636 HEAT:-230.1761
 CYCLE:   129 TIME:   0.143 TIME LEFT: 16.53W  GRAD.:     3.900 HEAT:-230.1810
 CYCLE:   130 TIME:   0.135 TIME LEFT: 16.53W  GRAD.:     3.191 HEAT:-230.1793
 CYCLE:   131 TIME:   0.134 TIME LEFT: 16.53W  GRAD.:     2.908 HEAT:-230.2271
 CYCLE:   132 TIME:   0.135 TIME LEFT: 16.53W  GRAD.:     3.305 HEAT:-230.2298
 CYCLE:   133 TIME:   0.133 TIME LEFT: 16.53W  GRAD.:     3.253 HEAT:-230.2514
 CYCLE:   134 TIME:   0.139 TIME LEFT: 16.53W  GRAD.:     3.097 HEAT:-230.2389
 CYCLE:   135 TIME:   0.133 TIME LEFT: 16.53W  GRAD.:     2.879 HEAT:-230.2478
 CYCLE:   136 TIME:   0.133 TIME LEFT: 16.53W  GRAD.:     2.616 HEAT:-230.2676
 CYCLE:   137 TIME:   0.133 TIME LEFT: 16.53W  GRAD.:     2.710 HEAT:-230.3031
 CYCLE:   138 TIME:   0.134 TIME LEFT: 16.53W  GRAD.:     3.711 HEAT:-230.3061
 CYCLE:   139 TIME:   0.132 TIME LEFT: 16.53W  GRAD.:     2.644 HEAT:-230.3395
 CYCLE:   140 TIME:   0.134 TIME LEFT: 16.53W  GRAD.:     3.510 HEAT:-230.3671
 CYCLE:   141 TIME:   0.127 TIME LEFT: 16.53W  GRAD.:     2.721 HEAT:-230.4233
 CYCLE:   142 TIME:   0.127 TIME LEFT: 16.53W  GRAD.:     2.028 HEAT:-230.4568
 CYCLE:   143 TIME:   0.132 TIME LEFT: 16.53W  GRAD.:     1.625 HEAT:-230.4633
 CYCLE:   144 TIME:   0.132 TIME LEFT: 16.53W  GRAD.:     1.694 HEAT:-230.4686
 CYCLE:   145 TIME:   0.131 TIME LEFT: 16.53W  GRAD.:     1.653 HEAT:-230.4732
 CYCLE:   146 TIME:   0.132 TIME LEFT: 16.53W  GRAD.:     1.497 HEAT:-230.6190
 CYCLE:   147 TIME:   0.132 TIME LEFT: 16.53W  GRAD.:     1.319 HEAT:-230.6377
 CYCLE:   148 TIME:   0.132 TIME LEFT: 16.53W  GRAD.:     1.108 HEAT:-230.6812
 CYCLE:   149 TIME:   0.133 TIME LEFT: 16.53W  GRAD.:     0.978 HEAT:-230.6955
 CYCLE:   150 TIME:   0.136 TIME LEFT: 16.53W  GRAD.:     1.092 HEAT:-230.7407
 CYCLE:   151 TIME:   0.140 TIME LEFT: 16.53W  GRAD.:     1.204 HEAT:-230.7677
 CYCLE:   152 TIME:   0.141 TIME LEFT: 16.53W  GRAD.:     1.365 HEAT:-230.8006
 CYCLE:   153 TIME:   0.141 TIME LEFT: 16.53W  GRAD.:     1.703 HEAT:-230.8295
 CYCLE:   154 TIME:   0.141 TIME LEFT: 16.53W  GRAD.:     2.285 HEAT:-230.9098
 CYCLE:   155 TIME:   0.140 TIME LEFT: 16.53W  GRAD.:     3.454 HEAT:-230.9493
 CYCLE:   156 TIME:   0.142 TIME LEFT: 16.53W  GRAD.:     3.907 HEAT:-231.1202
 CYCLE:   157 TIME:   0.136 TIME LEFT: 16.53W  GRAD.:     8.472 HEAT:-231.1163
 CYCLE:   158 TIME:   0.133 TIME LEFT: 16.53W  GRAD.:     8.452 HEAT:-231.0192
 CYCLE:   159 TIME:   0.131 TIME LEFT: 16.53W  GRAD.:     9.226 HEAT:-231.1682
 CYCLE:   160 TIME:   0.131 TIME LEFT: 16.53W  GRAD.:     3.299 HEAT:-231.2642
 CYCLE:   161 TIME:   0.132 TIME LEFT: 16.53W  GRAD.:     3.664 HEAT:-231.2737
 CYCLE:   162 TIME:   0.131 TIME LEFT: 16.53W  GRAD.:     2.665 HEAT:-231.3312
 CYCLE:   163 TIME:   0.132 TIME LEFT: 16.53W  GRAD.:     3.360 HEAT:-231.3911
 CYCLE:   164 TIME:   0.131 TIME LEFT: 16.53W  GRAD.:     2.823 HEAT:-231.3992
 CYCLE:   165 TIME:   0.132 TIME LEFT: 16.53W  GRAD.:     3.832 HEAT:-231.4491
 CYCLE:   166 TIME:   0.132 TIME LEFT: 16.53W  GRAD.:     4.904 HEAT:-231.5481
 CYCLE:   167 TIME:   0.128 TIME LEFT: 16.53W  GRAD.:     3.220 HEAT:-231.5632
 CYCLE:   168 TIME:   0.132 TIME LEFT: 16.53W  GRAD.:     3.399 HEAT:-231.5547
 CYCLE:   169 TIME:   0.132 TIME LEFT: 16.53W  GRAD.:     4.670 HEAT:-231.6625
 CYCLE:   170 TIME:   0.127 TIME LEFT: 16.53W  GRAD.:     3.934 HEAT:-231.6622
 CYCLE:   171 TIME:   0.131 TIME LEFT: 16.53W  GRAD.:     2.499 HEAT:-231.7454
 CYCLE:   172 TIME:   0.131 TIME LEFT: 16.53W  GRAD.:     2.574 HEAT:-231.7533
 CYCLE:   173 TIME:   0.135 TIME LEFT: 16.53W  GRAD.:     2.366 HEAT:-231.7883
 CYCLE:   174 TIME:   0.132 TIME LEFT: 16.53W  GRAD.:     1.515 HEAT:-231.7978
 CYCLE:   175 TIME:   0.131 TIME LEFT: 16.53W  GRAD.:     1.132 HEAT:-231.8024
 CYCLE:   176 TIME:   0.133 TIME LEFT: 16.53W  GRAD.:     1.147 HEAT:-231.7981
 CYCLE:   177 TIME:   0.132 TIME LEFT: 16.53W  GRAD.:     0.882 HEAT:-231.7987
 CYCLE:   178 TIME:   0.131 TIME LEFT: 16.53W  GRAD.:     0.628 HEAT:-231.8050
 CYCLE:   179 TIME:   0.132 TIME LEFT: 16.53W  GRAD.:     0.676 HEAT:-231.8108
 CYCLE:   180 TIME:   0.132 TIME LEFT: 16.53W  GRAD.:     0.541 HEAT:-231.8250
 CYCLE:   181 TIME:   0.132 TIME LEFT: 16.53W  GRAD.:     0.476 HEAT:-231.8269
 CYCLE:   182 TIME:   0.131 TIME LEFT: 16.53W  GRAD.:     0.488 HEAT:-231.8378
 CYCLE:   183 TIME:   0.132 TIME LEFT: 16.53W  GRAD.:     0.567 HEAT:-231.8301
 CYCLE:   184 TIME:   0.131 TIME LEFT: 16.53W  GRAD.:     0.567 HEAT:-231.8411
 CYCLE:   185 TIME:   0.131 TIME LEFT: 16.53W  GRAD.:     0.460 HEAT:-231.8739
 CYCLE:   186 TIME:   0.131 TIME LEFT: 16.53W  GRAD.:     0.511 HEAT:-231.8571
 CYCLE:   187 TIME:   0.131 TIME LEFT: 16.53W  GRAD.:     0.505 HEAT:-231.8478
 CYCLE:   188 TIME:   0.130 TIME LEFT: 16.53W  GRAD.:     0.434 HEAT:-231.8501
 CYCLE:   189 TIME:   0.131 TIME LEFT: 16.53W  GRAD.:     0.386 HEAT:-231.8474
 CYCLE:   190 TIME:   0.131 TIME LEFT: 16.53W  GRAD.:     0.394 HEAT:-231.8453
 CYCLE:   191 TIME:   0.131 TIME LEFT: 16.53W  GRAD.:     0.448 HEAT:-231.8478
 CYCLE:   192 TIME:   0.130 TIME LEFT: 16.53W  GRAD.:     0.403 HEAT:-231.8406
 CYCLE:   193 TIME:   0.131 TIME LEFT: 16.53W  GRAD.:     0.393 HEAT:-231.8371
 CYCLE:   194 TIME:   0.130 TIME LEFT: 16.53W  GRAD.:     0.397 HEAT:-231.8289
 CYCLE:   195 TIME:   0.131 TIME LEFT: 16.53W  GRAD.:     0.545 HEAT:-231.8327
 CYCLE:   196 TIME:   0.131 TIME LEFT: 16.53W  GRAD.:     0.575 HEAT:-231.8373
 CYCLE:   197 TIME:   0.131 TIME LEFT: 16.53W  GRAD.:     0.440 HEAT:-231.8403
 CYCLE:   198 TIME:   0.132 TIME LEFT: 16.53W  GRAD.:     0.567 HEAT:-231.8392
 CYCLE:   199 TIME:   0.130 TIME LEFT: 16.53W  GRAD.:     0.544 HEAT:-231.8395
 CYCLE:   200 TIME:   0.132 TIME LEFT: 16.53W  GRAD.:     0.658 HEAT:-231.8514
 CYCLE:   201 TIME:   0.131 TIME LEFT: 16.53W  GRAD.:     0.666 HEAT:-231.8545
 CYCLE:   202 TIME:   0.131 TIME LEFT: 16.53W  GRAD.:     0.624 HEAT:-231.8647
 CYCLE:   203 TIME:   0.132 TIME LEFT: 16.53W  GRAD.:     0.495 HEAT:-231.8513
 CYCLE:   204 TIME:   0.131 TIME LEFT: 16.53W  GRAD.:     0.421 HEAT:-231.8533
 CYCLE:   205 TIME:   0.132 TIME LEFT: 16.53W  GRAD.:     0.361 HEAT:-231.8560
 CYCLE:   206 TIME:   0.131 TIME LEFT: 16.53W  GRAD.:     0.343 HEAT:-231.8570
 CYCLE:   207 TIME:   0.131 TIME LEFT: 16.53W  GRAD.:     0.309 HEAT:-231.8564
 CYCLE:   208 TIME:   0.125 TIME LEFT: 16.53W  GRAD.:     0.237 HEAT:-231.8578
 CYCLE:   209 TIME:   0.131 TIME LEFT: 16.53W  GRAD.:     0.244 HEAT:-231.8483
 CYCLE:   210 TIME:   0.126 TIME LEFT: 16.53W  GRAD.:     0.235 HEAT:-231.8494
 CYCLE:   211 TIME:   0.127 TIME LEFT: 16.53W  GRAD.:     0.214 HEAT:-231.8400
 CYCLE:   212 TIME:   0.130 TIME LEFT: 16.53W  GRAD.:     0.242 HEAT:-231.8391
 CYCLE:   213 TIME:   0.126 TIME LEFT: 16.53W  GRAD.:     0.296 HEAT:-231.8331
 CYCLE:   214 TIME:   0.136 TIME LEFT: 16.53W  GRAD.:     0.958 HEAT:-231.8440
 CYCLE:   215 TIME:   0.131 TIME LEFT: 16.53W  GRAD.:     0.233 HEAT:-231.8406
 CYCLE:   216 TIME:   0.127 TIME LEFT: 16.53W  GRAD.:     0.182 HEAT:-231.8404
 CYCLE:   217 TIME:   0.131 TIME LEFT: 16.53W  GRAD.:     0.177 HEAT:-231.8397
 CYCLE:   218 TIME:   0.125 TIME LEFT: 16.53W  GRAD.:     0.171 HEAT:-231.8424
 CYCLE:   219 TIME:   0.133 TIME LEFT: 16.53W  GRAD.:     0.158 HEAT:-231.8420
 CYCLE:   220 TIME:   0.128 TIME LEFT: 16.53W  GRAD.:     0.122 HEAT:-231.8422

     RMS GRADIENT =  0.12173  IS LESS THAN CUTOFF =  0.15000



 -------------------------------------------------------------------------------
 PM6 T=31535563 DUMP=4320 XYZ EPS=78.40 RSOLV=1.30 MULLIK SYBYL +
 CHARGE=0 RELSCF=0.1 LET DDMIN=0.0 GNORM=0.15
 SJ000002349-1_T001S001I001C09: Geometry optimization step



     GEOMETRY OPTIMISED USING EIGENVECTOR FOLLOWING (EF).     
     SCF FIELD WAS ACHIEVED                                   


                               PM6     CALCULATION
                                                       MOPAC2009 (Version: 9.015L)
                                                       Tue Sep  6 16:28:39 2011




          FINAL HEAT OF FORMATION =       -231.84222 KCAL =    -970.02787 KJ
          VAN DER WAALS AREA      =        371.87 SQUARE ANGSTROMS


          TOTAL ENERGY            =      -4629.84537 EV
          ELECTRONIC ENERGY       =      -8770.03638 EV  POINT GROUP:     C1  
          CORE-CORE REPULSION     =       4140.19101 EV
          DIELECTRIC ENERGY       =         -1.41036 EV
          COSMO AREA              =        371.87 SQUARE ANGSTROMS
          COSMO VOLUME            =        462.35 CUBIC ANGSTROMS

          IONIZATION POTENTIAL    =          9.155042 EV
          HOMO LUMO ENERGIES (EV) =         -9.155 -0.956
          NO. OF FILLED LEVELS    =         74
          MOLECULAR WEIGHT        =        382.455

          MOLECULAR DIMENSIONS (Angstroms)

            Atom       Atom       Distance
            H    54    H    38    11.02961
            H    49    H    41    10.73396
            H    36    H    44     5.43049


          SCF CALCULATIONS        =        222
          COMPUTATION TIME        =         30.341 SECONDS




   ATOM   CHEMICAL          X               Y              Z
  NUMBER   SYMBOL      (ANGSTROMS)     (ANGSTROMS)    (ANGSTROMS)
 
     1       C         -0.1089283  *    0.030403  *    0.092521  *
     2       C          0.9305085  *   -0.640605  *    1.038996  *
     3       C          0.7956399  *   -2.114552  *    1.015194  *
     4       C         -0.2994069  *   -2.821047  *    0.641942  *
     5       C         -0.2785433  *   -4.329635  *    0.554892  *
     6       C          0.8917294  *   -4.874793  *    1.337128  *
     7       C          1.9325883  *   -4.094594  *    1.706813  *
     8       C          3.1740748  *   -4.522246  *    2.391723  *
     9       C          2.9696889  *   -5.870886  *    3.145482  *
    10       C          2.1999857  *   -6.854035  *    2.227079  *
    11       C          0.9039166  *   -6.302544  *    1.695725  *
    12       O         -0.0794164  *   -7.020576  *    1.568197  *
    13       O          1.9611719  *   -2.717786  *    1.473477  *
    14       C         -1.5292877  *   -2.101260  *    0.309951  *
    15       O         -2.5840654  *   -2.690990  *    0.055413  *
    16       C         -1.5026480  *   -0.600620  *    0.343914  *
    17       H          1.9629416  *   -0.319215  *    0.770671  *
    18       H          0.7991018  *   -0.268149  *    2.084780  *
    19       H         -1.2280285  *   -4.730255  *    1.015697  *
    20       H          3.9955069  *   -4.621579  *    1.640767  *
    21       H          3.5463960  *   -3.741567  *    3.093538  *
    22       H          2.8401257  *   -7.146146  *    1.362601  *
    23       H          2.0222107  *   -7.809302  *    2.766586  *
    24       H         -1.8950829  *   -0.268662  *    1.335439  *
    25       H         -2.2379049  *   -0.185894  *   -0.381248  *
    26       C         -0.2189138  *   -4.777410  *   -0.892143  *
    27       C         -1.3993683  *   -5.150121  *   -1.574383  *
    28       C         -1.3844073  *   -5.655576  *   -2.881543  *
    29       C         -0.1419710  *   -5.745995  *   -3.518293  *
    30       H         -2.3071293  *   -5.953180  *   -3.372271  *
    31       C          1.0520872  *   -5.344136  *   -2.897011  *
    32       C          0.9926931  *   -4.863553  *   -1.589000  *
    33       H          1.9963658  *   -5.412299  *   -3.431357  *
    34       H          1.9187870  *   -4.553600  *   -1.095732  *
    35       O         -2.6368389  *   -5.057377  *   -1.005369  *
    36       H         -2.6390691  *   -4.418544  *   -0.188590  *
    37       O         -0.0132900  *   -6.222855  *   -4.793565  *
    38       H         -0.8927332  *   -6.511200  *   -5.187803  *
    39       C         -0.1677142  *    1.529654  *    0.407126  *
    40       H          0.8056661  *    2.012569  *    0.254387  *
    41       H         -0.8856343  *    2.048560  *   -0.240872  *
    42       H         -0.4678008  *    1.727510  *    1.443254  *
    43       C          0.3055065  *   -0.183660  *   -1.369078  *
    44       H          1.2869077  *    0.259357  *   -1.579735  *
    45       H          0.3671415  *   -1.245235  *   -1.632740  *
    46       H         -0.4073064  *    0.281679  *   -2.061272  *
    47       C          4.3434124  *   -6.462431  *    3.482223  *
    48       H          4.9309658  *   -5.785485  *    4.114984  *
    49       H          4.2499747  *   -7.409052  *    4.029752  *
    50       H          4.9400388  *   -6.667303  *    2.585156  *
    51       C          2.1721904  *   -5.627489  *    4.433499  *
    52       H          1.1959568  *   -5.169668  *    4.240081  *
    53       H          1.9892221  *   -6.563704  *    4.975644  *
    54       H          2.7089754  *   -4.962350  *    5.121465  *

           Empirical Formula: C23 H26 O5  =    54 atoms



      MOLECULAR POINT GROUP   :   C1  


                  EIGENVALUES  
 -32.27804 -31.92349 -31.82438 -31.11561 -30.93806 -30.57192 -30.22593 -29.83601
 -28.83157 -27.86599 -26.60256 -26.40703 -26.06266 -25.55546 -25.15775 -24.52644
 -24.45059 -24.06333 -23.38915 -22.43952 -21.99966 -21.69892 -21.20156 -20.38716
 -19.75095 -19.34051 -18.47263 -17.83477 -17.58321 -17.28386 -17.00579 -16.88532
 -16.70034 -16.27865 -16.15334 -15.92688 -15.80898 -15.58135 -15.40919 -15.26037
 -15.15106 -15.06968 -14.95084 -14.83371 -14.75312 -14.51158 -14.41024 -14.32107
 -14.20557 -14.09269 -13.82416 -13.53680 -13.45246 -13.38306 -13.27234 -13.11904
 -13.04691 -12.92275 -12.87425 -12.83063 -12.37893 -12.33258 -12.26705 -12.10828
 -12.00870 -11.99859 -11.88394 -11.79519 -10.98522 -10.84410 -10.63283  -9.92172
  -9.79527  -9.15504  -0.95622  -0.36701  -0.09386   0.04593   0.51053   0.95157
   1.09335   1.91684   2.05305   2.25786   2.34727   2.55520   2.79760   2.87092
   3.12106   3.15988   3.28105   3.41157   3.45388   3.53833   3.62525   3.66366
   3.77297   3.85428   3.89242   3.93650   3.98204   4.09249   4.15652   4.20711
   4.25108   4.32833   4.43677   4.56477   4.61107   4.70779   4.80424   5.10100
   5.11990   5.12755   5.18881   5.26018   5.27348   5.32759   5.62065   5.68965
   5.73676   5.74332   5.77422   5.78364   5.78564   5.79266   5.81555   5.82344
   5.87520   5.90024   6.03969   6.05249   6.09782   6.16888   6.75206   6.76082
   6.85794   6.86563


              NET ATOMIC CHARGES AND DIPOLE CONTRIBUTIONS

  ATOM NO.   TYPE          CHARGE      No. of ELECS.   s-Pop       p-Pop       
    1          C           0.327796        3.6722     1.06680     2.60540
    2          C          -0.461178        4.4612     1.11094     3.35023
    3          C           0.470344        3.5297     1.10735     2.42230
    4          C          -0.502323        4.5023     1.11616     3.38616
    5          C           0.141579        3.8584     1.05209     2.80633
    6          C          -0.477632        4.4776     1.11826     3.35937
    7          C           0.441050        3.5590     1.10757     2.45138
    8          C          -0.454951        4.4550     1.11024     3.34471
    9          C           0.328396        3.6716     1.06695     2.60465
   10          C          -0.546077        4.5461     1.12402     3.42206
   11          C           0.671487        3.3285     1.09040     2.23812
   12          O          -0.624768        6.6248     1.85182     4.77295
   13          O          -0.363876        6.3639     1.83588     4.52799
   14          C           0.674030        3.3260     1.09282     2.23315
   15          O          -0.644900        6.6449     1.85145     4.79345
   16          C          -0.537667        4.5377     1.12244     3.41523
   17          H           0.211820        0.7882     0.78818
   18          H           0.217443        0.7826     0.78256
   19          H           0.141861        0.8581     0.85814
   20          H           0.213642        0.7864     0.78636
   21          H           0.209118        0.7909     0.79088
   22          H           0.211757        0.7882     0.78824
   23          H           0.205815        0.7942     0.79418
   24          H           0.216545        0.7835     0.78345
   25          H           0.211001        0.7890     0.78900
   26          C          -0.318484        4.3185     1.10239     3.21609
   27          C           0.441603        3.5584     1.07592     2.48247
   28          C          -0.541883        4.5419     1.11025     3.43163
   29          C           0.436400        3.5636     1.07467     2.48893
   30          H           0.211881        0.7881     0.78812
   31          C          -0.434550        4.4346     1.10467     3.32988
   32          C           0.066708        3.9333     1.10402     2.82927
   33          H           0.195313        0.8047     0.80469
   34          H           0.152295        0.8477     0.84771
   35          O          -0.554652        6.5547     1.81644     4.73822
   36          H           0.383054        0.6169     0.61695
   37          O          -0.517778        6.5178     1.80630     4.71148
   38          H           0.374172        0.6258     0.62583
   39          C          -0.556264        4.5563     1.09589     3.46038
   40          H           0.172573        0.8274     0.82743
   41          H           0.174173        0.8258     0.82583
   42          H           0.170568        0.8294     0.82943
   43          C          -0.558943        4.5589     1.09637     3.46257
   44          H           0.172443        0.8276     0.82756
   45          H           0.165953        0.8340     0.83405
   46          H           0.173014        0.8270     0.82699
   47          C          -0.555594        4.5556     1.09586     3.45974
   48          H           0.172039        0.8280     0.82796
   49          H           0.173857        0.8261     0.82614
   50          H           0.170233        0.8298     0.82977
   51          C          -0.560787        4.5608     1.09659     3.46419
   52          H           0.166451        0.8335     0.83355
   53          H           0.173387        0.8266     0.82661
   54          H           0.172505        0.8275     0.82750
 DIPOLE           X         Y         Z       TOTAL
 POINT-CHG.    10.681     8.690     5.151    14.701
 HYBRID        -0.592    -0.048    -0.195     0.626
 SUM           10.088     8.643     4.956    14.178


          CARTESIAN COORDINATES 

    NO.       ATOM               X         Y         Z

     1         C                 -0.1089    0.0304    0.0925
     2         C                  0.9305   -0.6406    1.0390
     3         C                  0.7956   -2.1146    1.0152
     4         C                 -0.2994   -2.8210    0.6419
     5         C                 -0.2785   -4.3296    0.5549
     6         C                  0.8917   -4.8748    1.3371
     7         C                  1.9326   -4.0946    1.7068
     8         C                  3.1741   -4.5222    2.3917
     9         C                  2.9697   -5.8709    3.1455
    10         C                  2.2000   -6.8540    2.2271
    11         C                  0.9039   -6.3025    1.6957
    12         O                 -0.0794   -7.0206    1.5682
    13         O                  1.9612   -2.7178    1.4735
    14         C                 -1.5293   -2.1013    0.3100
    15         O                 -2.5841   -2.6910    0.0554
    16         C                 -1.5026   -0.6006    0.3439
    17         H                  1.9629   -0.3192    0.7707
    18         H                  0.7991   -0.2681    2.0848
    19         H                 -1.2280   -4.7303    1.0157
    20         H                  3.9955   -4.6216    1.6408
    21         H                  3.5464   -3.7416    3.0935
    22         H                  2.8401   -7.1461    1.3626
    23         H                  2.0222   -7.8093    2.7666
    24         H                 -1.8951   -0.2687    1.3354
    25         H                 -2.2379   -0.1859   -0.3812
    26         C                 -0.2189   -4.7774   -0.8921
    27         C                 -1.3994   -5.1501   -1.5744
    28         C                 -1.3844   -5.6556   -2.8815
    29         C                 -0.1420   -5.7460   -3.5183
    30         H                 -2.3071   -5.9532   -3.3723
    31         C                  1.0521   -5.3441   -2.8970
    32         C                  0.9927   -4.8636   -1.5890
    33         H                  1.9964   -5.4123   -3.4314
    34         H                  1.9188   -4.5536   -1.0957
    35         O                 -2.6368   -5.0574   -1.0054
    36         H                 -2.6391   -4.4185   -0.1886
    37         O                 -0.0133   -6.2229   -4.7936
    38         H                 -0.8927   -6.5112   -5.1878
    39         C                 -0.1677    1.5297    0.4071
    40         H                  0.8057    2.0126    0.2544
    41         H                 -0.8856    2.0486   -0.2409
    42         H                 -0.4678    1.7275    1.4433
    43         C                  0.3055   -0.1837   -1.3691
    44         H                  1.2869    0.2594   -1.5797
    45         H                  0.3671   -1.2452   -1.6327
    46         H                 -0.4073    0.2817   -2.0613
    47         C                  4.3434   -6.4624    3.4822
    48         H                  4.9310   -5.7855    4.1150
    49         H                  4.2500   -7.4091    4.0298
    50         H                  4.9400   -6.6673    2.5852
    51         C                  2.1722   -5.6275    4.4335
    52         H                  1.1960   -5.1697    4.2401
    53         H                  1.9892   -6.5637    4.9756
    54         H                  2.7090   -4.9623    5.1215


          ATOMIC ORBITAL ELECTRON POPULATIONS

   1.06680   0.83619   0.88936   0.87985   1.11094   1.17770   0.98896   1.18358
   1.10735   0.77750   0.88618   0.75863   1.11616   1.05367   1.05790   1.27459
   1.05209   1.00532   0.88305   0.91797   1.11826   1.08431   1.06227   1.21279
   1.10757   0.90555   0.73877   0.80706   1.11024   1.05407   1.13205   1.15860
   1.06695   0.89449   0.83832   0.87184   1.12402   1.09842   1.15171   1.17192
   1.09040   0.80449   0.81729   0.61634   1.85182   1.50615   1.68176   1.58503
   1.83588   1.45353   1.33416   1.74030   1.09282   0.79166   0.86008   0.58141
   1.85145   1.46520   1.76405   1.56420   1.12244   1.13650   1.05293   1.22580
   0.78818   0.78256   0.85814   0.78636   0.79088   0.78824   0.79418   0.78345
   0.78900   1.10239   0.99712   1.19214   1.02683   1.07592   0.78165   0.83362
   0.86721   1.11025   1.09713   1.26993   1.06457   1.07467   0.92030   0.81597
   0.75267   0.78812   1.10467   1.07797   1.19740   1.05451   1.10402   1.01855
   0.86766   0.94306   0.80469   0.84771   1.81644   1.42603   1.72135   1.59084
   0.61695   1.80630   1.52372   1.79567   1.39209   0.62583   1.09589   1.20108
   1.06685   1.19244   0.82743   0.82583   0.82943   1.09637   1.19239   1.19138
   1.07880   0.82756   0.83405   0.82699   1.09586   1.08708   1.18075   1.19191
   0.82796   0.82614   0.82977   1.09659   1.15980   1.19749   1.10690   0.83355
   0.82661   0.82750

           MULLIKEN POPULATION ANALYSIS



        MULLIKEN POPULATIONS AND CHARGES

      NO.  ATOM   POPULATION      CHARGE
        1    C     3.637067      0.362933
        2    C     4.580998     -0.580998
        3    C     3.504881      0.495119
        4    C     4.545889     -0.545889
        5    C     3.851836      0.148164
        6    C     4.519832     -0.519832
        7    C     3.536167      0.463833
        8    C     4.573219     -0.573219
        9    C     3.637077      0.362923
       10    C     4.672088     -0.672088
       11    C     3.281474      0.718526
       12    O     6.650843     -0.650843
       13    O     6.403243     -0.403243
       14    C     3.280455      0.719545
       15    O     6.674485     -0.674485
       16    C     4.663648     -0.663648
       17    H     0.733188      0.266812
       18    H     0.728331      0.271669
       19    H     0.818350      0.181650
       20    H     0.732835      0.267165
       21    H     0.736142      0.263858
       22    H     0.735580      0.264420
       23    H     0.739371      0.260629
       24    H     0.730458      0.269542
       25    H     0.733979      0.266021
       26    C     4.344458     -0.344458
       27    C     3.529563      0.470437
       28    C     4.620316     -0.620316
       29    C     3.539417      0.460583
       30    H     0.724431      0.275569
       31    C     4.503552     -0.503552
       32    C     3.957899      0.042101
       33    H     0.745067      0.254933
       34    H     0.800326      0.199674
       35    O     6.601381     -0.601381
       36    H     0.583174      0.416826
       37    O     6.567357     -0.567357
       38    H     0.593322      0.406678
       39    C     4.702726     -0.702726
       40    H     0.779898      0.220102
       41    H     0.777980      0.222020
       42    H     0.782094      0.217906
       43    C     4.703624     -0.703624
       44    H     0.780074      0.219926
       45    H     0.787477      0.212523
       46    H     0.779420      0.220580
       47    C     4.701798     -0.701798
       48    H     0.780545      0.219455
       49    H     0.778386      0.221614
       50    H     0.782501      0.217499
       51    C     4.705950     -0.705950
       52    H     0.786873      0.213127
       53    H     0.778948      0.221052
       54    H     0.780006      0.219994



 TOTAL CPU TIME:            30.37 SECONDS

 == MOPAC DONE ==
 *******************************************************************************
 ** Site#:  958            For non-commercial use only         Version 9.015L **
 *******************************************************************************
 ** Cite this work as: MOPAC2009, James J. P. Stewart, Stewart Computational  **
 ** Chemistry, Version 9.015L web: HTTP://OpenMOPAC.net                       **
 *******************************************************************************
 **                                                                           **
 **                                MOPAC2009                                  **
 **                                                                           **
 *******************************************************************************

                            PM6 CALCULATION RESULTS


 *******************************************************************************
 *  CALCULATION DONE:                                Tue Sep  6 16:28:39 2011  *
 *  PM6      - The PM6 Hamiltonian to be used
 *  GEO-OK   - OVERRIDE INTERATOMIC DISTANCE CHECK
 *
 *
 *
 *                 CHARGE ON SYSTEM =     0
 *
 *
 *
 *  EPS= 78.400
 *  RSOLV=  1.300
 *  OLDGEO   - PREVIOUS GEOMETRY TO BE USED
 *  T=       - A TIME OF 172800.0 SECONDS REQUESTED
 *  DUMP=N   - RESTART FILE WRITTEN EVERY  4320.000 SECONDS
 *  RELSCF   - DEFAULT SCF CRITERION MULTIPLIED BY   0.100    
 *             (DEFAULT SCFCRT= 0.00010)
 *  THERMO   - THERMODYNAMIC QUANTITIES TO BE CALCULATED
 *******************************************************************************
 PM6 DUMP=4320 RELSCF=0.1 THERMO EPS=78.40 RSOLV=1.30 +
 OLDGEO GEO-OK CHARGE=0
 SJ000002349-1_T001S001I001C09: Free energy calculation

   ATOM   CHEMICAL          X               Y              Z
  NUMBER   SYMBOL      (ANGSTROMS)     (ANGSTROMS)    (ANGSTROMS)
 
     1       C         -0.1089283  *    0.030403  *    0.092521  *
     2       C          0.9305085  *   -0.640605  *    1.038996  *
     3       C          0.7956399  *   -2.114552  *    1.015194  *
     4       C         -0.2994069  *   -2.821047  *    0.641942  *
     5       C         -0.2785433  *   -4.329635  *    0.554892  *
     6       C          0.8917294  *   -4.874793  *    1.337128  *
     7       C          1.9325883  *   -4.094594  *    1.706813  *
     8       C          3.1740748  *   -4.522246  *    2.391723  *
     9       C          2.9696889  *   -5.870886  *    3.145482  *
    10       C          2.1999857  *   -6.854035  *    2.227079  *
    11       C          0.9039166  *   -6.302544  *    1.695725  *
    12       O         -0.0794164  *   -7.020576  *    1.568197  *
    13       O          1.9611719  *   -2.717786  *    1.473477  *
    14       C         -1.5292877  *   -2.101260  *    0.309951  *
    15       O         -2.5840654  *   -2.690990  *    0.055413  *
    16       C         -1.5026480  *   -0.600620  *    0.343914  *
    17       H          1.9629416  *   -0.319215  *    0.770671  *
    18       H          0.7991018  *   -0.268149  *    2.084780  *
    19       H         -1.2280285  *   -4.730255  *    1.015697  *
    20       H          3.9955069  *   -4.621579  *    1.640767  *
    21       H          3.5463960  *   -3.741567  *    3.093538  *
    22       H          2.8401257  *   -7.146146  *    1.362601  *
    23       H          2.0222107  *   -7.809302  *    2.766586  *
    24       H         -1.8950829  *   -0.268662  *    1.335439  *
    25       H         -2.2379049  *   -0.185894  *   -0.381248  *
    26       C         -0.2189138  *   -4.777410  *   -0.892143  *
    27       C         -1.3993683  *   -5.150121  *   -1.574383  *
    28       C         -1.3844073  *   -5.655576  *   -2.881543  *
    29       C         -0.1419710  *   -5.745995  *   -3.518293  *
    30       H         -2.3071293  *   -5.953180  *   -3.372271  *
    31       C          1.0520872  *   -5.344136  *   -2.897011  *
    32       C          0.9926931  *   -4.863553  *   -1.589000  *
    33       H          1.9963658  *   -5.412299  *   -3.431357  *
    34       H          1.9187870  *   -4.553600  *   -1.095732  *
    35       O         -2.6368389  *   -5.057377  *   -1.005369  *
    36       H         -2.6390691  *   -4.418544  *   -0.188590  *
    37       O         -0.0132900  *   -6.222855  *   -4.793565  *
    38       H         -0.8927332  *   -6.511200  *   -5.187803  *
    39       C         -0.1677142  *    1.529654  *    0.407126  *
    40       H          0.8056661  *    2.012569  *    0.254387  *
    41       H         -0.8856343  *    2.048560  *   -0.240872  *
    42       H         -0.4678008  *    1.727510  *    1.443254  *
    43       C          0.3055065  *   -0.183660  *   -1.369078  *
    44       H          1.2869077  *    0.259357  *   -1.579735  *
    45       H          0.3671415  *   -1.245235  *   -1.632740  *
    46       H         -0.4073064  *    0.281679  *   -2.061272  *
    47       C          4.3434124  *   -6.462431  *    3.482223  *
    48       H          4.9309658  *   -5.785485  *    4.114984  *
    49       H          4.2499747  *   -7.409052  *    4.029752  *
    50       H          4.9400388  *   -6.667303  *    2.585156  *
    51       C          2.1721904  *   -5.627489  *    4.433499  *
    52       H          1.1959568  *   -5.169668  *    4.240081  *
    53       H          1.9892221  *   -6.563704  *    4.975644  *
    54       H          2.7089754  *   -4.962350  *    5.121465  *
 


          CARTESIAN COORDINATES 

    NO.       ATOM         X         Y         Z

     1         C       -0.1089    0.0304    0.0925
     2         C        0.9305   -0.6406    1.0390
     3         C        0.7956   -2.1146    1.0152
     4         C       -0.2994   -2.8210    0.6419
     5         C       -0.2785   -4.3296    0.5549
     6         C        0.8917   -4.8748    1.3371
     7         C        1.9326   -4.0946    1.7068
     8         C        3.1741   -4.5222    2.3917
     9         C        2.9697   -5.8709    3.1455
    10         C        2.2000   -6.8540    2.2271
    11         C        0.9039   -6.3025    1.6957
    12         O       -0.0794   -7.0206    1.5682
    13         O        1.9612   -2.7178    1.4735
    14         C       -1.5293   -2.1013    0.3100
    15         O       -2.5841   -2.6910    0.0554
    16         C       -1.5026   -0.6006    0.3439
    17         H        1.9629   -0.3192    0.7707
    18         H        0.7991   -0.2681    2.0848
    19         H       -1.2280   -4.7303    1.0157
    20         H        3.9955   -4.6216    1.6408
    21         H        3.5464   -3.7416    3.0935
    22         H        2.8401   -7.1461    1.3626
    23         H        2.0222   -7.8093    2.7666
    24         H       -1.8951   -0.2687    1.3354
    25         H       -2.2379   -0.1859   -0.3812
    26         C       -0.2189   -4.7774   -0.8921
    27         C       -1.3994   -5.1501   -1.5744
    28         C       -1.3844   -5.6556   -2.8815
    29         C       -0.1420   -5.7460   -3.5183
    30         H       -2.3071   -5.9532   -3.3723
    31         C        1.0521   -5.3441   -2.8970
    32         C        0.9927   -4.8636   -1.5890
    33         H        1.9964   -5.4123   -3.4314
    34         H        1.9188   -4.5536   -1.0957
    35         O       -2.6368   -5.0574   -1.0054
    36         H       -2.6391   -4.4185   -0.1886
    37         O       -0.0133   -6.2229   -4.7936
    38         H       -0.8927   -6.5112   -5.1878
    39         C       -0.1677    1.5297    0.4071
    40         H        0.8057    2.0126    0.2544
    41         H       -0.8856    2.0486   -0.2409
    42         H       -0.4678    1.7275    1.4433
    43         C        0.3055   -0.1837   -1.3691
    44         H        1.2869    0.2594   -1.5797
    45         H        0.3671   -1.2452   -1.6327
    46         H       -0.4073    0.2817   -2.0613
    47         C        4.3434   -6.4624    3.4822
    48         H        4.9310   -5.7855    4.1150
    49         H        4.2500   -7.4091    4.0298
    50         H        4.9400   -6.6673    2.5852
    51         C        2.1722   -5.6275    4.4335
    52         H        1.1960   -5.1697    4.2401
    53         H        1.9892   -6.5637    4.9756
    54         H        2.7090   -4.9623    5.1215

 General Reference for PM6:
 "Optimization of Parameters for Semiempirical Methods V: Modification of NDDO Approximations
 and Application to 70 Elements", J. J. P. Stewart, J. Mol. Mod., 13, 1173-1213 (2007)
 URL: http://www.springerlink.com/content/ar33482301010477/fulltext.pdf

           Empirical Formula: C23 H26 O5  =    54 atoms



      MOLECULAR POINT GROUP   :   C1  


      RHF CALCULATION, NO. OF DOUBLY OCCUPIED LEVELS =   74

  SCF CRITERION =    0.1000E-04


          HEAT OF FORMATION =    -231.842180 KCALS/MOLE


          INTERNAL COORDINATE DERIVATIVES

   NUMBER  ATOM       BOND         ANGLE      DIHEDRAL

     1       C
     2       C      0.011451
     3       C     -0.013105     0.026727
     4       C     -0.023675     0.078538    -0.031347
     5       C     -0.031815    -0.077235     0.011173
     6       C      0.030162     0.007761     0.071320
     7       C     -0.051673    -0.021417    -0.017729
     8       C     -0.024682     0.081358     0.013686
     9       C      0.079892    -0.003610    -0.027211
    10       C     -0.014108    -0.013540     0.015356
    11       C      0.001691     0.043425     0.035325
    12       O     -0.007495    -0.053639     0.051376
    13       O     -0.039728     0.034051    -0.194467
    14       C      0.149825    -0.097047     0.107866
    15       O     -0.067815    -0.004693     0.003315
    16       C      0.028472     0.002209    -0.161527
    17       H      0.041831     0.114677     0.175023
    18       H     -0.060374    -0.005811     0.027558
    19       H      0.014500     0.016408    -0.018800
    20       H      0.065881    -0.032987     0.020990
    21       H     -0.019383     0.024104     0.028317
    22       H     -0.048652     0.003650    -0.052214
    23       H      0.080863    -0.020845    -0.020516
    24       H     -0.057319    -0.002901    -0.033399
    25       H     -0.014053     0.024095     0.042900
    26       C     -0.025157    -0.019635    -0.023563
    27       C      0.016993     0.000273     0.012325
    28       C      0.076509    -0.036663     0.033419
    29       C      0.087475    -0.046201     0.036730
    30       H     -0.032361    -0.042110    -0.081316
    31       C     -0.071704     0.003136     0.072313
    32       C      0.079411    -0.014497    -0.006737
    33       H      0.062000     0.070368    -0.003818
    34       H     -0.067640    -0.031472    -0.079224
    35       O     -0.016565     0.010667     0.003712
    36       H     -0.003363    -0.011936     0.017164
    37       O     -0.155274     0.038179     0.096943
    38       H     -0.002299    -0.000366    -0.063572
    39       C     -0.305862    -0.020935     0.069697
    40       H      0.283016     0.001283    -0.075386
    41       H     -0.007923    -0.032076    -0.012073
    42       H      0.003403     0.010371     0.022459
    43       C      0.015803     0.028888     0.008283
    44       H      0.010643    -0.024446     0.010485
    45       H      0.011650    -0.005360    -0.022968
    46       H     -0.013176    -0.003655     0.030136
    47       C     -0.010834    -0.032959    -0.005104
    48       H      0.018612    -0.005570    -0.020371
    49       H     -0.002652     0.023556    -0.028155
    50       H      0.044981    -0.000401    -0.020514
    51       C      0.014540     0.014303     0.016449
    52       H     -0.024628     0.005912    -0.017679
    53       H     -0.015597     0.016176    -0.016675
    54       H     -0.016064     0.005528    -0.026469


          GRADIENT NORM =   0.74373


          TIME FOR SCF CALCULATION =    0.24

          TIME FOR DERIVATIVES     =    0.08

          MOLECULAR WEIGHT =  382.46



          ROTATIONAL CONSTANTS IN CM(-1)

          A =    0.00657485   B =    0.00544374   C =    0.00368162



           PRINCIPAL MOMENTS OF INERTIA IN UNITS OF 10**(-40)*GRAM-CM**2

          A =     4257.5563   B =     5142.1981   C =     7603.3772


          ORIENTATION OF MOLECULE IN FORCE CALCULATION

    NO.       ATOM         X         Y         Z

     1          C      -2.1812   -3.3703   -0.4145
     2          C      -0.6235   -3.3703   -0.4145
     3          C      -0.0930   -1.9883   -0.4145
     4          C      -0.7462   -0.8708   -0.8171
     5          C      -0.1353    0.5032   -0.6657
     6          C       1.3557    0.3846   -0.4622
     7          C       1.9388   -0.7793   -0.0959
     8          C       3.3676   -1.0045    0.2221
     9          C       4.2702    0.0944   -0.4156
    10          C       3.6220    1.4826   -0.1809
    11          C       2.1968    1.5772   -0.6562
    12          O       1.7724    2.6040   -1.1703
    13          O       1.2230   -1.9717    0.0329
    14          C      -2.0786   -1.0013   -1.4074
    15          O      -2.6831   -0.0330   -1.8788
    16          C      -2.6866   -2.3716   -1.4873
    17          H      -0.2360   -3.9579    0.4491
    18          H      -0.2362   -3.9214   -1.3066
    19          H      -0.3163    1.0846   -1.6162
    20          H       3.5022   -1.0175    1.3312
    21          H       3.7062   -2.0156   -0.1002
    22          H       3.6497    1.7360    0.9043
    23          H       4.2427    2.2713   -0.6583
    24          H      -2.4890   -2.7803   -2.5077
    25          H      -3.7965   -2.3037   -1.4425
    26          C      -0.7818    1.2480    0.4854
    27          C      -1.8235    2.1723    0.2437
    28          C      -2.3900    2.9499    1.2629
    29          C      -1.9089    2.7514    2.5615
    30          H      -3.1757    3.6674    1.0422
    31          C      -0.9078    1.8113    2.8567
    32          C      -0.3597    1.0716    1.8089
    33          H      -0.5730    1.6725    3.8816
    34          H       0.4245    0.3411    2.0293
    35          O      -2.3435    2.3839   -1.0007
    36          H      -2.1239    1.6045   -1.6483
    37          O      -2.3925    3.4550    3.6299
    38          H      -3.0947    4.1247    3.3644
    39          C      -2.6751   -4.7794   -0.7618
    40          H      -2.3264   -5.5207   -0.0318
    41          H      -3.7714   -4.8308   -0.7688
    42          H      -2.3310   -5.1111   -1.7489
    43          C      -2.7005   -2.9579    0.9690
    44          H      -2.3645   -3.6516    1.7499
    45          H      -2.3623   -1.9570    1.2589
    46          H      -3.7972   -2.9518    1.0013
    47          C       5.6462    0.0572    0.2593
    48          H       6.1312   -0.9192    0.1351
    49          H       6.3243    0.8062   -0.1694
    50          H       5.5875    0.2555    1.3363
    51          C       4.4158   -0.1655   -1.9207
    52          H       3.4496   -0.1843   -2.4367
    53          H       5.0264    0.6072   -2.4045
    54          H       4.9054   -1.1271   -2.1192


    FIRST DERIVATIVES WILL BE USED IN THE CALCULATION OF SECOND DERIVATIVES

          ESTIMATED TIME TO COMPLETE CALCULATION =      105.28 SECONDS

    FOR POINT-GROUP C1   THERE ARE   1 UNIQUE SYMMETRY FUNCTIONS.

 STEP:   1 TIME =     0.24 SECS, INTEGRAL =      0.24 TIME LEFT: 172799.43
 STEP:   2 TIME =     0.24 SECS, INTEGRAL =      0.48 TIME LEFT: 172799.20
 STEP:   3 TIME =     0.23 SECS, INTEGRAL =      0.71 TIME LEFT: 172798.97
 STEP:   4 TIME =     0.23 SECS, INTEGRAL =      0.94 TIME LEFT: 172798.73
 STEP:   5 TIME =     0.27 SECS, INTEGRAL =      1.22 TIME LEFT: 172798.46
 STEP:   6 TIME =     0.23 SECS, INTEGRAL =      1.44 TIME LEFT: 172798.23
 STEP:   7 TIME =     0.24 SECS, INTEGRAL =      1.68 TIME LEFT: 172797.99
 STEP:   8 TIME =     0.24 SECS, INTEGRAL =      1.92 TIME LEFT: 172797.75
 STEP:   9 TIME =     0.23 SECS, INTEGRAL =      2.16 TIME LEFT: 172797.52
 STEP:  10 TIME =     0.23 SECS, INTEGRAL =      2.39 TIME LEFT: 172797.28
 STEP:  11 TIME =     0.23 SECS, INTEGRAL =      2.62 TIME LEFT: 172797.05
 STEP:  12 TIME =     0.24 SECS, INTEGRAL =      2.86 TIME LEFT: 172796.82
 STEP:  13 TIME =     0.24 SECS, INTEGRAL =      3.09 TIME LEFT: 172796.58
 STEP:  14 TIME =     0.24 SECS, INTEGRAL =      3.33 TIME LEFT: 172796.34
 STEP:  15 TIME =     0.23 SECS, INTEGRAL =      3.56 TIME LEFT: 172796.11
 STEP:  16 TIME =     0.23 SECS, INTEGRAL =      3.79 TIME LEFT: 172795.88
 STEP:  17 TIME =     0.24 SECS, INTEGRAL =      4.03 TIME LEFT: 172795.65
 STEP:  18 TIME =     0.24 SECS, INTEGRAL =      4.27 TIME LEFT: 172795.41
 STEP:  19 TIME =     0.24 SECS, INTEGRAL =      4.51 TIME LEFT: 172795.17
 STEP:  20 TIME =     0.23 SECS, INTEGRAL =      4.74 TIME LEFT: 172794.93
 STEP:  21 TIME =     0.24 SECS, INTEGRAL =      4.98 TIME LEFT: 172794.70
 STEP:  22 TIME =     0.24 SECS, INTEGRAL =      5.22 TIME LEFT: 172794.46
 STEP:  23 TIME =     0.23 SECS, INTEGRAL =      5.44 TIME LEFT: 172794.23
 STEP:  24 TIME =     0.23 SECS, INTEGRAL =      5.67 TIME LEFT: 172794.00
 STEP:  25 TIME =     0.23 SECS, INTEGRAL =      5.91 TIME LEFT: 172793.77
 STEP:  26 TIME =     0.23 SECS, INTEGRAL =      6.13 TIME LEFT: 172793.54
 STEP:  27 TIME =     0.23 SECS, INTEGRAL =      6.36 TIME LEFT: 172793.32
 STEP:  28 TIME =     0.23 SECS, INTEGRAL =      6.59 TIME LEFT: 172793.08
 STEP:  29 TIME =     0.23 SECS, INTEGRAL =      6.82 TIME LEFT: 172792.86
 STEP:  30 TIME =     0.23 SECS, INTEGRAL =      7.05 TIME LEFT: 172792.63
 STEP:  31 TIME =     0.24 SECS, INTEGRAL =      7.28 TIME LEFT: 172792.39
 STEP:  32 TIME =     0.24 SECS, INTEGRAL =      7.53 TIME LEFT: 172792.15
 STEP:  33 TIME =     0.23 SECS, INTEGRAL =      7.76 TIME LEFT: 172791.92
 STEP:  34 TIME =     0.23 SECS, INTEGRAL =      7.99 TIME LEFT: 172791.69
 STEP:  35 TIME =     0.23 SECS, INTEGRAL =      8.21 TIME LEFT: 172791.46
 STEP:  36 TIME =     0.23 SECS, INTEGRAL =      8.44 TIME LEFT: 172791.24
 STEP:  37 TIME =     0.23 SECS, INTEGRAL =      8.67 TIME LEFT: 172791.00
 STEP:  38 TIME =     0.23 SECS, INTEGRAL =      8.91 TIME LEFT: 172790.77
 STEP:  39 TIME =     0.23 SECS, INTEGRAL =      9.14 TIME LEFT: 172790.54
 STEP:  40 TIME =     0.24 SECS, INTEGRAL =      9.38 TIME LEFT: 172790.30
 STEP:  41 TIME =     0.23 SECS, INTEGRAL =      9.61 TIME LEFT: 172790.07
 STEP:  42 TIME =     0.24 SECS, INTEGRAL =      9.84 TIME LEFT: 172789.83
 STEP:  43 TIME =     0.23 SECS, INTEGRAL =     10.07 TIME LEFT: 172789.60
 STEP:  44 TIME =     0.23 SECS, INTEGRAL =     10.30 TIME LEFT: 172789.38
 STEP:  45 TIME =     0.23 SECS, INTEGRAL =     10.53 TIME LEFT: 172789.15
 STEP:  46 TIME =     0.23 SECS, INTEGRAL =     10.76 TIME LEFT: 172788.92
 STEP:  47 TIME =     0.23 SECS, INTEGRAL =     10.98 TIME LEFT: 172788.69
 STEP:  48 TIME =     0.23 SECS, INTEGRAL =     11.21 TIME LEFT: 172788.46
 STEP:  49 TIME =     0.22 SECS, INTEGRAL =     11.43 TIME LEFT: 172788.24
 STEP:  50 TIME =     0.22 SECS, INTEGRAL =     11.65 TIME LEFT: 172788.02
 STEP:  51 TIME =     0.22 SECS, INTEGRAL =     11.87 TIME LEFT: 172787.81
 STEP:  52 TIME =     0.22 SECS, INTEGRAL =     12.09 TIME LEFT: 172787.59
 STEP:  53 TIME =     0.22 SECS, INTEGRAL =     12.30 TIME LEFT: 172787.37
 STEP:  54 TIME =     0.22 SECS, INTEGRAL =     12.52 TIME LEFT: 172787.15
 STEP:  55 TIME =     0.22 SECS, INTEGRAL =     12.75 TIME LEFT: 172786.93
 STEP:  56 TIME =     0.22 SECS, INTEGRAL =     12.96 TIME LEFT: 172786.71
 STEP:  57 TIME =     0.22 SECS, INTEGRAL =     13.18 TIME LEFT: 172786.49
 STEP:  58 TIME =     0.22 SECS, INTEGRAL =     13.40 TIME LEFT: 172786.27
 STEP:  59 TIME =     0.22 SECS, INTEGRAL =     13.63 TIME LEFT: 172786.05
 STEP:  60 TIME =     0.22 SECS, INTEGRAL =     13.84 TIME LEFT: 172785.83
 STEP:  61 TIME =     0.22 SECS, INTEGRAL =     14.06 TIME LEFT: 172785.61
 STEP:  62 TIME =     0.22 SECS, INTEGRAL =     14.28 TIME LEFT: 172785.40
 STEP:  63 TIME =     0.22 SECS, INTEGRAL =     14.50 TIME LEFT: 172785.18
 STEP:  64 TIME =     0.22 SECS, INTEGRAL =     14.72 TIME LEFT: 172784.96
 STEP:  65 TIME =     0.22 SECS, INTEGRAL =     14.94 TIME LEFT: 172784.73
 STEP:  66 TIME =     0.22 SECS, INTEGRAL =     15.16 TIME LEFT: 172784.52
 STEP:  67 TIME =     0.22 SECS, INTEGRAL =     15.37 TIME LEFT: 172784.30
 STEP:  68 TIME =     0.22 SECS, INTEGRAL =     15.59 TIME LEFT: 172784.08
 STEP:  69 TIME =     0.23 SECS, INTEGRAL =     15.82 TIME LEFT: 172783.86
 STEP:  70 TIME =     0.22 SECS, INTEGRAL =     16.04 TIME LEFT: 172783.63
 STEP:  71 TIME =     0.22 SECS, INTEGRAL =     16.26 TIME LEFT: 172783.41
 STEP:  72 TIME =     0.22 SECS, INTEGRAL =     16.48 TIME LEFT: 172783.19
 STEP:  73 TIME =     0.22 SECS, INTEGRAL =     16.70 TIME LEFT: 172782.97
 STEP:  74 TIME =     0.22 SECS, INTEGRAL =     16.92 TIME LEFT: 172782.75
 STEP:  75 TIME =     0.23 SECS, INTEGRAL =     17.15 TIME LEFT: 172782.52
 STEP:  76 TIME =     0.24 SECS, INTEGRAL =     17.39 TIME LEFT: 172782.28
 STEP:  77 TIME =     0.24 SECS, INTEGRAL =     17.64 TIME LEFT: 172782.04
 STEP:  78 TIME =     0.25 SECS, INTEGRAL =     17.88 TIME LEFT: 172781.79
 STEP:  79 TIME =     0.25 SECS, INTEGRAL =     18.13 TIME LEFT: 172781.54
 STEP:  80 TIME =     0.24 SECS, INTEGRAL =     18.37 TIME LEFT: 172781.30
 STEP:  81 TIME =     0.25 SECS, INTEGRAL =     18.62 TIME LEFT: 172781.06
 STEP:  82 TIME =     0.23 SECS, INTEGRAL =     18.85 TIME LEFT: 172780.83
 STEP:  83 TIME =     0.24 SECS, INTEGRAL =     19.09 TIME LEFT: 172780.59
 STEP:  84 TIME =     0.26 SECS, INTEGRAL =     19.35 TIME LEFT: 172780.33
 STEP:  85 TIME =     0.23 SECS, INTEGRAL =     19.57 TIME LEFT: 172780.10
 STEP:  86 TIME =     0.23 SECS, INTEGRAL =     19.80 TIME LEFT: 172779.88
 STEP:  87 TIME =     0.24 SECS, INTEGRAL =     20.04 TIME LEFT: 172779.63
 STEP:  88 TIME =     0.23 SECS, INTEGRAL =     20.27 TIME LEFT: 172779.41
 STEP:  89 TIME =     0.22 SECS, INTEGRAL =     20.49 TIME LEFT: 172779.19
 STEP:  90 TIME =     0.22 SECS, INTEGRAL =     20.70 TIME LEFT: 172778.97
 STEP:  91 TIME =     0.23 SECS, INTEGRAL =     20.93 TIME LEFT: 172778.74
 STEP:  92 TIME =     0.24 SECS, INTEGRAL =     21.17 TIME LEFT: 172778.50
 STEP:  93 TIME =     0.23 SECS, INTEGRAL =     21.40 TIME LEFT: 172778.27
 STEP:  94 TIME =     0.23 SECS, INTEGRAL =     21.63 TIME LEFT: 172778.05
 STEP:  95 TIME =     0.23 SECS, INTEGRAL =     21.86 TIME LEFT: 172777.81
 STEP:  96 TIME =     0.25 SECS, INTEGRAL =     22.11 TIME LEFT: 172777.56
 STEP:  97 TIME =     0.23 SECS, INTEGRAL =     22.34 TIME LEFT: 172777.34
 STEP:  98 TIME =     0.22 SECS, INTEGRAL =     22.56 TIME LEFT: 172777.11
 STEP:  99 TIME =     0.21 SECS, INTEGRAL =     22.78 TIME LEFT: 172776.90
 STEP: 100 TIME =     0.22 SECS, INTEGRAL =     23.00 TIME LEFT: 172776.68
 STEP: 101 TIME =     0.22 SECS, INTEGRAL =     23.22 TIME LEFT: 172776.45
 STEP: 102 TIME =     0.22 SECS, INTEGRAL =     23.44 TIME LEFT: 172776.23
 STEP: 103 TIME =     0.22 SECS, INTEGRAL =     23.67 TIME LEFT: 172776.01
 STEP: 104 TIME =     0.23 SECS, INTEGRAL =     23.90 TIME LEFT: 172775.78
 STEP: 105 TIME =     0.24 SECS, INTEGRAL =     24.13 TIME LEFT: 172775.54
 STEP: 106 TIME =     0.23 SECS, INTEGRAL =     24.36 TIME LEFT: 172775.31
 STEP: 107 TIME =     0.23 SECS, INTEGRAL =     24.59 TIME LEFT: 172775.09
 STEP: 108 TIME =     0.24 SECS, INTEGRAL =     24.83 TIME LEFT: 172774.85
 STEP: 109 TIME =     0.25 SECS, INTEGRAL =     25.08 TIME LEFT: 172774.60
 STEP: 110 TIME =     0.25 SECS, INTEGRAL =     25.33 TIME LEFT: 172774.35
 STEP: 111 TIME =     0.26 SECS, INTEGRAL =     25.58 TIME LEFT: 172774.09
 STEP: 112 TIME =     0.23 SECS, INTEGRAL =     25.82 TIME LEFT: 172773.86
 STEP: 113 TIME =     0.24 SECS, INTEGRAL =     26.06 TIME LEFT: 172773.62
 STEP: 114 TIME =     0.23 SECS, INTEGRAL =     26.29 TIME LEFT: 172773.39
 STEP: 115 TIME =     0.24 SECS, INTEGRAL =     26.52 TIME LEFT: 172773.15
 STEP: 116 TIME =     0.25 SECS, INTEGRAL =     26.78 TIME LEFT: 172772.90
 STEP: 117 TIME =     0.26 SECS, INTEGRAL =     27.04 TIME LEFT: 172772.64
 STEP: 118 TIME =     0.25 SECS, INTEGRAL =     27.28 TIME LEFT: 172772.39
 STEP: 119 TIME =     0.24 SECS, INTEGRAL =     27.53 TIME LEFT: 172772.15
 STEP: 120 TIME =     0.23 SECS, INTEGRAL =     27.76 TIME LEFT: 172771.91
 STEP: 121 TIME =     0.24 SECS, INTEGRAL =     28.00 TIME LEFT: 172771.67
 STEP: 122 TIME =     0.24 SECS, INTEGRAL =     28.24 TIME LEFT: 172771.43
 STEP: 123 TIME =     0.26 SECS, INTEGRAL =     28.50 TIME LEFT: 172771.18
 STEP: 124 TIME =     0.25 SECS, INTEGRAL =     28.74 TIME LEFT: 172770.93
 STEP: 125 TIME =     0.23 SECS, INTEGRAL =     28.98 TIME LEFT: 172770.70
 STEP: 126 TIME =     0.24 SECS, INTEGRAL =     29.22 TIME LEFT: 172770.45
 STEP: 127 TIME =     0.24 SECS, INTEGRAL =     29.47 TIME LEFT: 172770.21
 STEP: 128 TIME =     0.25 SECS, INTEGRAL =     29.72 TIME LEFT: 172769.96
 STEP: 129 TIME =     0.25 SECS, INTEGRAL =     29.96 TIME LEFT: 172769.71
 STEP: 130 TIME =     0.24 SECS, INTEGRAL =     30.21 TIME LEFT: 172769.47
 STEP: 131 TIME =     0.23 SECS, INTEGRAL =     30.44 TIME LEFT: 172769.24
 STEP: 132 TIME =     0.25 SECS, INTEGRAL =     30.69 TIME LEFT: 172768.99
 STEP: 133 TIME =     0.23 SECS, INTEGRAL =     30.92 TIME LEFT: 172768.76
 STEP: 134 TIME =     0.23 SECS, INTEGRAL =     31.15 TIME LEFT: 172768.53
 STEP: 135 TIME =     0.23 SECS, INTEGRAL =     31.38 TIME LEFT: 172768.30
 STEP: 136 TIME =     0.23 SECS, INTEGRAL =     31.61 TIME LEFT: 172768.06
 STEP: 137 TIME =     0.24 SECS, INTEGRAL =     31.85 TIME LEFT: 172767.83
 STEP: 138 TIME =     0.25 SECS, INTEGRAL =     32.10 TIME LEFT: 172767.58
 STEP: 139 TIME =     0.24 SECS, INTEGRAL =     32.34 TIME LEFT: 172767.33
 STEP: 140 TIME =     0.24 SECS, INTEGRAL =     32.59 TIME LEFT: 172767.09
 STEP: 141 TIME =     0.25 SECS, INTEGRAL =     32.83 TIME LEFT: 172766.84
 STEP: 142 TIME =     0.24 SECS, INTEGRAL =     33.08 TIME LEFT: 172766.60
 STEP: 143 TIME =     0.23 SECS, INTEGRAL =     33.31 TIME LEFT: 172766.37
 STEP: 144 TIME =     0.24 SECS, INTEGRAL =     33.55 TIME LEFT: 172766.13
 STEP: 145 TIME =     0.23 SECS, INTEGRAL =     33.78 TIME LEFT: 172765.89
 STEP: 146 TIME =     0.23 SECS, INTEGRAL =     34.01 TIME LEFT: 172765.66
 STEP: 147 TIME =     0.23 SECS, INTEGRAL =     34.24 TIME LEFT: 172765.43
 STEP: 148 TIME =     0.24 SECS, INTEGRAL =     34.48 TIME LEFT: 172765.19
 STEP: 149 TIME =     0.24 SECS, INTEGRAL =     34.72 TIME LEFT: 172764.95
 STEP: 150 TIME =     0.23 SECS, INTEGRAL =     34.95 TIME LEFT: 172764.72
 STEP: 151 TIME =     0.24 SECS, INTEGRAL =     35.20 TIME LEFT: 172764.48
 STEP: 152 TIME =     0.25 SECS, INTEGRAL =     35.45 TIME LEFT: 172764.23
 STEP: 153 TIME =     0.24 SECS, INTEGRAL =     35.69 TIME LEFT: 172763.98
 STEP: 154 TIME =     0.24 SECS, INTEGRAL =     35.93 TIME LEFT: 172763.74
 STEP: 155 TIME =     0.24 SECS, INTEGRAL =     36.17 TIME LEFT: 172763.51
 STEP: 156 TIME =     0.24 SECS, INTEGRAL =     36.41 TIME LEFT: 172763.26
 STEP: 157 TIME =     0.23 SECS, INTEGRAL =     36.65 TIME LEFT: 172763.03
 STEP: 158 TIME =     0.23 SECS, INTEGRAL =     36.88 TIME LEFT: 172762.80
 STEP: 159 TIME =     0.27 SECS, INTEGRAL =     37.14 TIME LEFT: 172762.53
 STEP: 160 TIME =     0.25 SECS, INTEGRAL =     37.40 TIME LEFT: 172762.28
 STEP: 161 TIME =     0.26 SECS, INTEGRAL =     37.66 TIME LEFT: 172762.02
 STEP: 162 TIME =     0.26 SECS, INTEGRAL =     37.92 TIME LEFT: 172761.75

(To convert to Hartree/Bohr^2, multiply by (10^(-21) x N x a0^2)/(4.184 x 627.51) = 0.0642)


           FORCE MATRIX IN MILLIDYNES/ANGSTROM


                  C  1       C  2       C  3       C  4       C  5       C  6
 ------------------------------------------------------------------------------
     C    1  13.210097
     C    2   2.705170  11.903886
     C    3   0.824066   3.831508  15.796840
     C    4   0.117961   0.863829   7.502355  15.947737
     C    5   0.020372   0.110971   0.948709   3.512687  12.899890
     C    6   0.017647   0.029254   0.382262   0.818245   3.602278  16.100938
     C    7   0.035729   0.140449   1.653540   0.400885   0.927403   7.767956
     C    8   0.010966   0.039034   0.138556   0.030764   0.115316   0.835557
     C    9   0.003970   0.011436   0.038527   0.019891   0.021295   0.110633
     C   10   0.004937   0.009286   0.045003   0.041589   0.045205   0.762057
     C   11   0.020347   0.039685   0.352690   0.180847   0.692916   3.544392
     O   12   0.009433   0.017642   0.138320   0.074541   0.066057   1.702121
     O   13   0.071406   0.984022   3.665078   1.619237   0.265654   1.552076
     C   14   0.800156   0.204500   1.898636   3.659602   0.715279   0.171086
     O   15   0.121530   0.107077   0.469970   1.779337   0.084121   0.077196
     C   16   2.840017   0.725546   0.090135   0.757564   0.047222   0.038447
     H   17   0.590295   3.261204   0.722072   0.066904   0.015865   0.011765
     H   18   0.589732   3.193773   0.729937   0.057461   0.018326   0.012255
     H   19   0.004514   0.013635   0.044341   0.643415   3.129574   0.644855
     H   20   0.001895   0.004935   0.020445   0.011900   0.020468   0.053809
     H   21   0.002581   0.006325   0.022366   0.011863   0.015857   0.057878
     H   22   0.001045   0.002566   0.012173   0.007475   0.005115   0.043639
     H   23   0.000859   0.001452   0.008452   0.006019   0.006647   0.049717
     H   24   0.593340   0.021004   0.033899   0.050737   0.005435   0.006339
     H   25   0.604724   0.065502   0.035016   0.054792   0.007912   0.006294
     C   26   0.010912   0.027737   0.108134   0.778942   3.440392   0.737392
     C   27   0.009237   0.010727   0.023568   0.068008   0.746137   0.062473
     C   28   0.003225   0.007602   0.017101   0.023141   0.067100   0.029073
     C   29   0.007667   0.017980   0.047657   0.063710   0.100484   0.050090
     H   30   0.000985   0.002421   0.006335   0.007954   0.012186   0.007109
     C   31   0.007938   0.017894   0.046065   0.062798   0.137336   0.048552
     C   32   0.006842   0.017558   0.049768   0.058582   0.792673   0.045089
     H   33   0.001527   0.002678   0.005983   0.007648   0.013506   0.007149
     H   34   0.001329   0.002292   0.010922   0.011009   0.035497   0.026504
     O   35   0.012006   0.010584   0.032697   0.065980   0.119398   0.036510
     H   36   0.022296   0.022198   0.077042   0.098828   0.114275   0.027212
     O   37   0.005446   0.013353   0.035092   0.049011   0.078397   0.037002
     H   38   0.001112   0.002921   0.007506   0.010654   0.016502   0.008463
     C   39   3.239345   0.702739   0.055536   0.031554   0.008018   0.011441
     H   40   0.616686   0.015695   0.007050   0.004847   0.001068   0.001616
     H   41   0.621270   0.043026   0.012577   0.005717   0.001131   0.001413
     H   42   0.609990   0.017002   0.005891   0.005067   0.001578   0.002004


                  C  1       C  2       C  3       C  4       C  5       C  6
 ------------------------------------------------------------------------------
     C   43   3.204959   0.732747   0.056193   0.068998   0.012053   0.012355
     H   44   0.620522   0.014970   0.014518   0.007784   0.002130   0.002311
     H   45   0.611468   0.008618   0.047057   0.014440   0.004111   0.004563
     H   46   0.622906   0.046581   0.010871   0.007618   0.001642   0.002087
     C   47   0.002228   0.005617   0.022103   0.012023   0.008297   0.030022
     H   48   0.000470   0.000904   0.003408   0.001923   0.001384   0.004870
     H   49   0.000459   0.000684   0.002437   0.001528   0.001303   0.004925
     H   50   0.000425   0.001029   0.003907   0.002171   0.001143   0.004895
     C   51   0.001991   0.004626   0.019552   0.012088   0.010499   0.052284
     H   52   0.000987   0.001427   0.005312   0.003430   0.003023   0.008014
     H   53   0.000489   0.000743   0.002985   0.001986   0.001268   0.005757
     H   54   0.000511   0.001130   0.003663   0.002317   0.001768   0.005868


                  C  7       C  8       C  9       C 10       C 11       O 12
 ------------------------------------------------------------------------------
     C    7  15.921136
     C    8   3.837695  11.912357
     C    9   0.815771   2.688701  13.143783
     C   10   0.073865   0.731562   2.842072  11.831112
     C   11   1.791562   0.186686   0.834402   3.282689  16.265010
     O   12   0.405472   0.094294   0.122224   1.322641  10.314639  12.324538
     O   13   3.570729   0.975151   0.075878   0.080676   0.615707   0.246926
     C   14   0.349945   0.037675   0.021221   0.034976   0.174834   0.074540
     O   15   0.146625   0.018206   0.010112   0.016599   0.079821   0.034152
     C   16   0.041994   0.008786   0.005113   0.008890   0.034301   0.015056
     H   17   0.021782   0.006667   0.002619   0.003494   0.013510   0.006269
     H   18   0.022053   0.004696   0.002303   0.003258   0.014144   0.006645
     H   19   0.044019   0.016774   0.005060   0.009058   0.054747   0.023004
     H   20   0.734299   3.216704   0.592313   0.022586   0.066451   0.031872
     H   21   0.708090   3.269247   0.591273   0.046261   0.054905   0.026485
     H   22   0.040626   0.019002   0.609033   3.247705   0.723943   0.075793
     H   23   0.025403   0.045995   0.606792   3.305600   0.704259   0.060470
     H   24   0.010067   0.001830   0.001257   0.001865   0.006902   0.003329
     H   25   0.009917   0.001887   0.000997   0.001865   0.006911   0.003333
     C   26   0.085293   0.026183   0.008450   0.011280   0.037310   0.040983
     C   27   0.044877   0.015425   0.006912   0.011906   0.038103   0.039190
     C   28   0.017745   0.007450   0.003709   0.006025   0.016740   0.010524
     C   29   0.037066   0.015552   0.007237   0.013786   0.044262   0.025110
     H   30   0.005036   0.002039   0.001265   0.002022   0.005684   0.003436
     C   31   0.041943   0.015855   0.008026   0.016151   0.045664   0.025434
     C   32   0.046843   0.015396   0.007354   0.013658   0.043306   0.021949
     H   33   0.005742   0.002438   0.001466   0.002153   0.006845   0.003964
     H   34   0.027777   0.005143   0.002792   0.004594   0.014850   0.007157
     O   35   0.031828   0.010592   0.004538   0.009240   0.028186   0.018854
     H   36   0.029515   0.005366   0.002945   0.005081   0.021424   0.020002
     O   37   0.025754   0.011758   0.005715   0.010295   0.030427   0.017350
     H   38   0.005501   0.002836   0.001407   0.002738   0.007221   0.004050
     C   39   0.021385   0.005704   0.002764   0.003455   0.013155   0.006023
     H   40   0.003224   0.000996   0.000516   0.000535   0.002126   0.001101
     H   41   0.002302   0.000708   0.000516   0.000446   0.001711   0.000882
     H   42   0.003057   0.000990   0.000755   0.000789   0.002759   0.001447
     C   43   0.020017   0.004976   0.002727   0.003755   0.014308   0.006606
     H   44   0.003846   0.001066   0.000851   0.000943   0.002780   0.001432
     H   45   0.007092   0.002050   0.001273   0.001393   0.005310   0.002483
     H   46   0.003055   0.001009   0.000562   0.000665   0.002399   0.001021
[...]
 EFF. MASS   1.4615

 VIBRATION  143  143A       ATOM PAIR        ENERGY CONTRIBUTION    RADIAL
 FREQ.      2684.60        C 47 --  H 48          +62.6% ( 81.6%)    99.4%
 T-DIPOLE    0.8901        C 47 --  H 50          +21.9% ( 48.3%)    90.0%
 TRAVEL      0.1311        C 47 --  H 49          +12.5% ( 36.4%)    80.6%
 RED. MASS   0.4739        C 51 --  H 53           +1.3% ( 11.8%)    99.6%
 EFF. MASS   1.4607

 VIBRATION  144  144A       ATOM PAIR        ENERGY CONTRIBUTION    RADIAL
 FREQ.      2686.49        C 51 --  H 52          +59.9% ( 79.8%)    99.3%
 T-DIPOLE    0.8764        C 51 --  H 53          +25.0% ( 51.6%)    92.1%
 TRAVEL      0.1308        C 51 --  H 54           +9.0% ( 30.9%)    74.3%
 RED. MASS   0.4478        C 47 --  H 50           +3.4% ( 19.0%)    99.5%
 EFF. MASS   1.4660

 VIBRATION  145  145A       ATOM PAIR        ENERGY CONTRIBUTION    RADIAL
 FREQ.      2686.70        C 43 --  H 45          +62.1% ( 81.3%)    99.4%
 T-DIPOLE    0.8772        C 43 --  H 46          +20.4% ( 46.6%)    89.3%
 TRAVEL      0.1308        C 43 --  H 44          +13.6% ( 38.0%)    82.5%
 RED. MASS   0.4646        C 39 --  H 42           +1.9% ( 14.2%)    99.4%
 EFF. MASS   1.4662

 VIBRATION  146  146A       ATOM PAIR        ENERGY CONTRIBUTION    RADIAL
 FREQ.      2718.95        C  2 --  H 17          +54.5% ( 72.5%)    97.8%
 T-DIPOLE    1.1637        C  2 --  H 18          +37.3% ( 60.0%)    95.3%
 TRAVEL      0.1405        C  8 --  H 21           +1.9% ( 13.5%)    97.6%
 RED. MASS   0.4290        C 16 --  H 24           +1.8% ( 13.3%)    98.0%
 EFF. MASS   1.2571

 VIBRATION  147  147A       ATOM PAIR        ENERGY CONTRIBUTION    RADIAL
 FREQ.      2722.06        C  8 --  H 21          +47.1% ( 67.4%)    97.5%
 T-DIPOLE    1.5894        C  8 --  H 20          +36.4% ( 59.3%)    95.8%
 TRAVEL      0.1406        C 10 --  H 23           +7.0% ( 26.0%)    97.8%
 RED. MASS   0.3557        C 10 --  H 22           +4.9% ( 21.8%)    96.2%
 EFF. MASS   1.2527

 VIBRATION  148  148A       ATOM PAIR        ENERGY CONTRIBUTION    RADIAL
 FREQ.      2730.79        C 10 --  H 23          +42.7% ( 64.4%)    97.6%
 T-DIPOLE    1.1385        C 10 --  H 22          +31.7% ( 55.5%)    95.5%
 TRAVEL      0.1390        C 32 --  H 34          +12.0% ( 34.1%)   100.0%
 RED. MASS   0.2997        C  8 --  H 21           +5.2% ( 22.4%)    97.2%
 EFF. MASS   1.2784

 VIBRATION  149  149A       ATOM PAIR        ENERGY CONTRIBUTION    RADIAL
 FREQ.      2731.07        C 32 --  H 34          +78.8% ( 89.4%)   100.0%
 T-DIPOLE    0.8358        C 31 --  H 33           +6.3% ( 25.4%)    99.9%
 TRAVEL      0.1340        C 10 --  H 23           +6.0% ( 24.6%)    97.7%
 RED. MASS   0.6048        C 10 --  H 22           +4.3% ( 20.9%)    95.3%
 EFF. MASS   1.3748

 VIBRATION  150  150A       ATOM PAIR        ENERGY CONTRIBUTION    RADIAL
 FREQ.      2735.01        C 16 --  H 24          +51.1% ( 70.2%)    96.9%
 T-DIPOLE    0.9231        C 16 --  H 25          +42.7% ( 64.1%)    96.1%
 TRAVEL      0.1399        C  2 --  H 17           +1.9% ( 13.6%)    97.0%
 RED. MASS   0.4356        C  2 --  H 18           +1.7% ( 12.6%)    95.6%
 EFF. MASS   1.2596

 VIBRATION  151  151A       ATOM PAIR        ENERGY CONTRIBUTION    RADIAL
 FREQ.      2746.04        C 28 --  H 30          +62.6% ( 79.9%)   100.0%
 T-DIPOLE    1.9148        C 31 --  H 33          +34.5% ( 59.4%)   100.0%
 TRAVEL      0.1337        C 32 --  H 34           +0.8% (  8.8%)    98.4%
 RED. MASS   0.4960        C 27 --  C 28           +0.7% (  8.2%)    23.5%
 EFF. MASS   1.3747

 VIBRATION  152  152A       ATOM PAIR        ENERGY CONTRIBUTION    RADIAL
 FREQ.      2754.89        C 31 --  H 33          +55.9% ( 75.4%)   100.0%
 T-DIPOLE    0.8986        C 28 --  H 30          +34.2% ( 59.0%)   100.0%
 TRAVEL      0.1310        C 32 --  H 34           +7.4% ( 27.4%)    99.8%
 RED. MASS   0.4238        C 31 --  C 32           +0.8% (  8.9%)    60.0%
 EFF. MASS   1.4267

 VIBRATION  153  153A       ATOM PAIR        ENERGY CONTRIBUTION    RADIAL
 FREQ.      2786.59        C 39 --  H 40          +20.5% ( 43.5%)    95.8%
 T-DIPOLE    0.6423        C 39 --  H 41          +20.3% ( 43.3%)    95.8%
 TRAVEL      0.1458        C 39 --  H 42          +19.6% ( 42.6%)    95.5%
 RED. MASS   0.1704        C 43 --  H 45          +13.9% ( 35.8%)    96.0%
 EFF. MASS   1.1376        C 43 --  H 44          +12.7% ( 34.3%)    95.8%
                           C 43 --  H 46          +12.6% ( 34.1%)    95.7%

 VIBRATION  154  154A       ATOM PAIR        ENERGY CONTRIBUTION    RADIAL
 FREQ.      2787.74        C 47 --  H 48          +20.1% ( 43.1%)    95.9%
 T-DIPOLE    0.6110        C 47 --  H 50          +19.7% ( 42.6%)    95.5%
 TRAVEL      0.1458        C 47 --  H 49          +19.0% ( 41.8%)    95.5%
 RED. MASS   0.1682        C 51 --  H 52          +14.2% ( 36.2%)    95.9%
 EFF. MASS   1.1381        C 51 --  H 53          +13.5% ( 35.3%)    95.8%
                           C 51 --  H 54          +13.2% ( 35.0%)    95.7%

 VIBRATION  155  155A       ATOM PAIR        ENERGY CONTRIBUTION    RADIAL
 FREQ.      2790.53        C 43 --  H 45          +20.3% ( 43.3%)    95.7%
 T-DIPOLE    0.5858        C 43 --  H 46          +20.0% ( 43.0%)    95.4%
 TRAVEL      0.1451        C 43 --  H 44          +19.8% ( 42.7%)    95.3%
 RED. MASS   0.1681        C 39 --  H 41          +13.3% ( 35.0%)    95.5%
 EFF. MASS   1.1472        C 39 --  H 40          +13.2% ( 34.8%)    95.4%
                           C 39 --  H 42          +12.3% ( 33.6%)    95.3%

 VIBRATION  156  156A       ATOM PAIR        ENERGY CONTRIBUTION    RADIAL
 FREQ.      2791.57        C 51 --  H 53          +19.7% ( 42.7%)    95.5%
 T-DIPOLE    0.5271        C 51 --  H 52          +19.6% ( 42.5%)    95.7%
 TRAVEL      0.1451        C 51 --  H 54          +18.9% ( 41.8%)    95.2%
 RED. MASS   0.1658        C 47 --  H 48          +13.9% ( 35.8%)    95.4%
 EFF. MASS   1.1479        C 47 --  H 49          +13.4% ( 35.1%)    95.1%
                           C 47 --  H 50          +13.3% ( 35.0%)    95.3%

 SYMMETRY NUMBER FOR POINT-GROUP C1  =  1


          SYSTEM IS A GROUND STATE


                                                                                                                                                                                                                                                 
 SJ000002349-1_T001S001I001C09: Free energy calculation                                                                                                                                                                                          


          MOLECULE IS NOT LINEAR

          THERE ARE  156 GENUINE VIBRATIONS IN THIS SYSTEM
          THIS THERMODYNAMICS CALCULATION IS LIMITED TO
          MOLECULES WHICH HAVE NO INTERNAL ROTATIONS




                    CALCULATED THERMODYNAMIC PROPERTIES
                                          *
   TEMP. (K)   PARTITION FUNCTION   H.O.F.    ENTHALPY  HEAT CAPACITY ENTROPY
                                   KCAL/MOL   CAL/MOLE    CAL/K/MOL  CAL/K/MOL


 298.00  VIB.     0.1361D+11                 14906.3129    99.8304    96.3915
         ROT.     0.1455D+08                   888.2813     2.9808    35.7566
         INT.     0.1982D+18                 15794.5943   102.8112   132.1482
         TRA.     0.7231D+28                  1480.4688     4.9680    43.7144
         TOT.                     -231.842   17275.0631   107.7792   175.8625

 200.00  VIB.     0.3432D+07                  6726.9072    67.2618    63.5393
         ROT.     0.8002D+07                   596.1620     2.9808    34.5680
         INT.     0.2746D+14                  7323.0692    70.2426    98.1072
         TRA.     0.3976D+28                   993.6033     4.9680    41.7332
         TOT.                     -240.801    8316.6724    75.2106   139.8404

 210.00  VIB.     0.7999D+07                  7415.8353    70.5263    66.8999
         ROT.     0.8610D+07                   625.9700     2.9808    34.7134
         INT.     0.6887D+14                  8041.8054    73.5071   101.6133
         TRA.     0.4278D+28                  1043.2834     4.9680    41.9756
         TOT.                     -240.032    9085.0888    78.4751   143.5889

 220.00  VIB.     0.1864D+08                  8137.4867    73.8068    70.2564
         ROT.     0.9232D+07                   655.7781     2.9808    34.8521
         INT.     0.1721D+15                  8793.2649    76.7877   105.1085
         TRA.     0.4587D+28                  1092.9636     4.9680    42.2067
         TOT.                     -239.231    9886.2284    81.7557   147.3152

 230.00  VIB.     0.4344D+08                  8892.0308    77.1049    73.6100
         ROT.     0.9869D+07                   685.5862     2.9808    34.9846
         INT.     0.4287D+15                  9577.6171    80.0857   108.5945
         TRA.     0.4903D+28                  1142.6437     4.9680    42.4276
         TOT.                     -238.397   10720.2608    85.0537   151.0221

 240.00  VIB.     0.1012D+09                  9679.6427    80.4202    76.9615
         ROT.     0.1052D+08                   715.3943     2.9808    35.1114
         INT.     0.1065D+16                 10395.0370    83.4010   112.0729
         TRA.     0.5226D+28                  1192.3239     4.9680    42.6390
         TOT.                     -237.530   11587.3609    88.3690   154.7119

 250.00  VIB.     0.2358D+09                 10500.4863    83.7509    80.3119
         ROT.     0.1118D+08                   745.2024     2.9808    35.2331
         INT.     0.2637D+16                 11245.6887    86.7317   115.5450
         TRA.     0.5556D+28                  1242.0041     4.9680    42.8418
         TOT.                     -236.630   12487.6928    91.6997   158.3868

 260.00  VIB.     0.5490D+09                 11354.7008    87.0938    83.6618
         ROT.     0.1186D+08                   775.0105     2.9808    35.3500
         INT.     0.6512D+16                 12129.7113    90.0746   119.0118
         TRA.     0.5893D+28                  1291.6842     4.9680    43.0367
         TOT.                     -235.696   13421.3956    95.0426   162.0484

 270.00  VIB.     0.1278D+10                 12242.3895    90.4450    87.0115
         ROT.     0.1255D+08                   804.8186     2.9808    35.4625
         INT.     0.1605D+17                 13047.2082    93.4258   122.4740
         TRA.     0.6236D+28                  1341.3644     4.9680    43.2242
         TOT.                     -234.729   14388.5726    98.3938   165.6982

 280.00  VIB.     0.2976D+10                 13163.6117    93.7996    90.3614
         ROT.     0.1326D+08                   834.6267     2.9808    35.5709
         INT.     0.3945D+17                 13998.2384    96.7804   125.9323
         TRA.     0.6586D+28                  1391.0445     4.9680    43.4048
         TOT.                     -233.728   15389.2829   101.7485   169.3372

 290.00  VIB.     0.6927D+10                 14118.3768    97.1527    93.7115
         ROT.     0.1397D+08                   864.4348     2.9808    35.6755
         INT.     0.9678D+17                 14982.8117   100.1335   129.3870
         TRA.     0.6942D+28                  1440.7247     4.9680    43.5792
         TOT.                     -232.694   16423.5364   105.1015   172.9662

 300.00  VIB.     0.1612D+11                 15106.6422   100.4988    97.0615
         ROT.     0.1470D+08                   894.2429     2.9808    35.7766
         INT.     0.2370D+18                 16000.8851   103.4796   132.8381
         TRA.     0.7304D+28                  1490.4049     4.9680    43.7476
         TOT.                     -231.626   17491.2900   108.4476   176.5857

 310.00  VIB.     0.3751D+11                 16128.3112   103.8325   100.4113
         ROT.     0.1544D+08                   924.0510     2.9808    35.8743
         INT.     0.5793D+18                 17052.3622   106.8133   136.2856
         TRA.     0.7672D+28                  1540.0850     4.9680    43.9105
         TOT.                     -230.525   18592.4472   111.7814   180.1961

 320.00  VIB.     0.8729D+11                 17183.2345   107.1488   103.7602
         ROT.     0.1620D+08                   953.8591     2.9808    35.9689
         INT.     0.1414D+19                 18137.0936   110.1296   139.7292
         TRA.     0.8046D+28                  1589.7652     4.9680    44.0682
         TOT.                     -229.390   19726.8588   115.0976   183.7974

 330.00  VIB.     0.2031D+12                 18271.2118   110.4425   107.1079
         ROT.     0.1696D+08                   983.6672     2.9808    36.0607
         INT.     0.3444D+19                 19254.8791   113.4234   143.1685
         TRA.     0.8426D+28                  1639.4454     4.9680    44.2211
         TOT.                     -228.223   20894.3244   118.3914   187.3896

 340.00  VIB.     0.4724D+12                 19391.9950   113.7092   110.4535
         ROT.     0.1774D+08                  1013.4753     2.9808    36.1497
         INT.     0.8379D+19                 20405.4703   116.6900   146.6031
         TRA.     0.8812D+28                  1689.1255     4.9680    44.3694
         TOT.                     -227.023   22094.5958   121.6580   190.9726

 350.00  VIB.     0.1099D+13                 20545.2913   116.9445   113.7964
         ROT.     0.1853D+08                  1043.2834     2.9808    36.2361
         INT.     0.2035D+20                 21588.5748   119.9253   150.0324
         TRA.     0.9204D+28                  1738.8057     4.9680    44.5134
         TOT.                     -225.790   23327.3804   124.8934   194.5459

 360.00  VIB.     0.2555D+13                 21730.7684   120.1447   117.1358
         ROT.     0.1933D+08                  1073.0915     2.9808    36.3200
         INT.     0.4937D+20                 22803.8599   123.1255   153.4558
         TRA.     0.9601D+28                  1788.4859     4.9680    44.6534
         TOT.                     -224.525   24592.3457   128.0936   198.1092

 370.00  VIB.     0.5940D+13                 22948.0577   123.3065   120.4708
         ROT.     0.2014D+08                  1102.8996     2.9808    36.4017
         INT.     0.1196D+21                 24050.9573   126.2873   156.8725
         TRA.     0.1000D+29                  1838.1660     4.9680    44.7895
         TOT.                     -223.228   25889.1233   131.2553   201.6620

 380.00  VIB.     0.1380D+14                 24196.7595   126.4268   123.8007
         ROT.     0.2096D+08                  1132.7077     2.9808    36.4812
         INT.     0.2893D+21                 25329.4672   129.4076   160.2819
         TRA.     0.1041D+29                  1887.8462     4.9680    44.9220
         TOT.                     -221.900   27217.3134   134.3756   205.2039

 390.00  VIB.     0.3208D+14                 25476.4471   129.5032   127.1246
         ROT.     0.2179D+08                  1162.5158     2.9808    36.5586
         INT.     0.6989D+21                 26638.9629   132.4841   163.6832
         TRA.     0.1083D+29                  1937.5263     4.9680    45.0510
         TOT.                     -220.541   28576.4893   137.4521   208.7342

 400.00  VIB.     0.7450D+14                 26786.6712   132.5338   130.4416
         ROT.     0.2263D+08                  1192.3239     2.9808    36.6341
         INT.     0.1686D+22                 27978.9951   135.5146   167.0757
         TRA.     0.1125D+29                  1987.2065     4.9680    45.1768
         TOT.                     -219.151   29966.2016   140.4826   212.2525

   *: NOTE: HEATS OF FORMATION ARE RELATIVE TO THE
             ELEMENTS IN THEIR STANDARD STATE AT 298K
              (=  Standard Enthalpy of Formation).
            Heat of Formation at T is calculated as [Escf + (HT - H298.15)-.

            Hvib:  Zero-point energy is not included.
                   Wi < 100 cm-1 are not included.
            Hrot = (3/2)RT
            Htra = (3/2)RT + pV = (5/2)RT

            Heat capacity is Cp, not Cv

                 See Section 8.20 in Manual for further information.   (by TH).

           FORCE CONSTANT IN CARTESIAN COORDINATES (Millidynes/A)

    ATOM   CHEMICAL       X               Y               Z
   NUMBER   SYMBOL  FORCE CONSTANT  FORCE CONSTANT  FORCE CONSTANT

      1       C        7.294203        7.847187        7.705536
      2       C        6.919245        7.503897        6.085626
      3       C        8.239670       12.248302        3.474600
      4       C        8.851073       11.733253        3.694662
      5       C        7.891425        7.595149        6.776351
      6       C        9.798719       11.590280        3.088581
      7       C        9.746161       10.999516        3.278071
      8       C        7.653727        6.719419        6.146358
      9       C        7.768028        7.153152        7.798483
     10       C        7.306970        6.938167        6.168226
     11       C        8.368560       11.578315        4.909728
     12       O        2.431232        8.874650        2.469398
     13       O        6.332656        5.540128        1.365738
     14       C        8.455362       11.334722        4.810044
     15       O        3.665030        7.619800        2.093025
     16       C        6.636084        7.456822        6.309472
     17       H        1.117110        1.640325        2.548710
     18       H        1.092856        1.504666        2.630282
     19       H        0.868557        1.620152        3.038994
     20       H        0.778259        0.545211        3.927734
     21       H        1.072992        3.453839        0.801644
     22       H        0.659162        0.805391        3.804498
     23       H        1.823677        2.422833        1.137985
     24       H        0.553290        1.235536        3.504464
     25       H        4.025382        0.735249        0.560489
     26       C        6.666201        5.964805       10.538883
     27       C        6.558216        6.517805       10.350020
     28       C        5.933187        5.787170       10.493390
     29       C        6.713292        6.532482       10.562584
     30       H        2.367491        2.055698        0.862158
     31       C        6.143117        6.156574        9.713063
     32       C        6.027374        5.937347       10.365042
     33       H        0.923288        0.625736        3.830488
     34       H        2.319354        2.099034        1.032882
     35       O        1.889840        2.895159        6.321819
     36       H        0.434903        1.437920        1.969263
     37       O        2.832341        3.315403        4.933887
     38       H        1.757671        1.765306        0.817420
     39       C        6.389543        6.861049        6.437689
     40       H        0.890199        2.345246        2.099482
     41       H        4.104748        0.700341        0.520185
     42       H        0.884660        1.027806        3.417590
     43       C        6.416594        6.446426        6.809910
     44       H        0.870612        1.952759        2.510464
     45       H        0.879233        3.523330        0.958246
     46       H        4.112137        0.510426        0.694022
     47       C        6.824935        6.352127        6.512937
     48       H        1.391233        3.345918        0.600324
     49       H        2.062428        2.171134        1.088733
     50       H        0.698226        0.621449        4.007121
     51       C        6.391041        6.257040        6.917806
     52       H        3.310901        0.520250        1.529488
     53       H        1.621313        2.287289        1.423099
     54       H        1.225270        3.265627        0.840295



 TOTAL CPU TIME:            69.17 SECONDS

 == MOPAC DONE ==
