 *******************************************************************************
 ** Site#:  958            For non-commercial use only         Version 9.015L **
 *******************************************************************************
 ** Cite this work as: MOPAC2009, James J. P. Stewart, Stewart Computational  **
 ** Chemistry, Version 9.015L web: HTTP://OpenMOPAC.net                       **
 *******************************************************************************
 **                                                                           **
 **                                MOPAC2009                                  **
 **                                                                           **
 *******************************************************************************

                            PM6 CALCULATION RESULTS


 *******************************************************************************
 *  CALCULATION DONE:                                Tue Sep  6 16:25:48 2011  *
 *  PM6      - The PM6 Hamiltonian to be used
 *
 *
 *
 *                 CHARGE ON SYSTEM =     0
 *
 *
 *
 *  EPS= 78.400
 *  RSOLV=  1.300
 *  LET      - OVERRIDE SOME SAFETY CHECKS
 *  XYZ      - CARTESIAN COORDINATE SYSTEM TO BE USED
 *  T=       - A TIME OF  0.3E+08 SECONDS REQUESTED
 *  DUMP=N   - RESTART FILE WRITTEN EVERY  4320.000 SECONDS
 *  DDMIN=   - MINIMUM TRUST RADIUS  0.000 ANG/RAD
 *  GNORM=   - EXIT WHEN GRADIENT NORM DROPS BELOW .150    
 *  RELSCF   - DEFAULT SCF CRITERION MULTIPLIED BY   0.100    
 *             (DEFAULT SCFCRT= 0.00010)
 *  SYBYL    - OUTPUT SYBYL FILE
 *  MULLIK   - THE MULLIKEN ANALYSIS TO BE PERFORMED
 *******************************************************************************
 PM6 T=31535704 DUMP=4320 XYZ EPS=78.40 RSOLV=1.30 MULLIK SYBYL +
 CHARGE=0 RELSCF=0.1 LET DDMIN=0.0 GNORM=0.15
 SJ000002349-1_T001S001I001C02: Geometry optimization step

   ATOM   CHEMICAL          X               Y              Z
  NUMBER   SYMBOL      (ANGSTROMS)     (ANGSTROMS)    (ANGSTROMS)
 
     1       C          0.0020000  *   -0.004000  *    0.002000  *
     2       C          0.7410000  *   -0.518000  *    1.239000  *
     3       C          0.7380000  *   -2.028000  *    1.245000  *
     4       C         -0.2890000  *   -2.711000  *    0.706000  *
     5       C         -0.2870000  *   -4.219000  *    0.728000  *
     6       C          0.6680000  *   -4.729000  *    1.779000  *
     7       C          1.6410000  *   -3.927000  *    2.251000  *
     8       C          2.6000000  *   -4.427000  *    3.304000  *
     9       C          1.8990000  *   -5.450000  *    4.200000  *
    10       C          1.4240000  *   -6.603000  *    3.312000  *
    11       C          0.5160000  *   -6.047000  *    2.249000  *
    12       O         -0.3640000  *   -6.747000  *    1.789000  *
    13       O          1.7820000  *   -2.671000  *    1.795000  *
    14       C         -1.3770000  *   -2.044000  *    0.113000  *
    15       O         -2.2900000  *   -2.693000  *   -0.358000  *
    16       C         -1.4310000  *   -0.542000  *    0.053000  *
    17       H          1.7690000  *   -0.157000  *    1.223000  *
    18       H          0.2430000  *   -0.151000  *    2.137000  *
    19       H         -1.2920000  *   -4.577000  *    0.952000  *
    20       H          3.4570000  *   -4.896000  *    2.820000  *
    21       H          2.9420000  *   -3.588000  *    3.911000  *
    22       H          2.2830000  *   -7.084000  *    2.844000  *
    23       H          0.8800000  *   -7.330000  *    3.915000  *
    24       H         -1.9350000  *   -0.158000  *    0.940000  *
    25       H         -1.9710000  *   -0.230000  *   -0.840000  *
    26       C          0.1370000  *   -4.736000  *   -0.622000  *
    27       C         -0.7200000  *   -5.545000  *   -1.355000  *
    28       C         -0.3290000  *   -6.021000  *   -2.598000  *
    29       C          0.9170000  *   -5.687000  *   -3.104000  *
    30       H         -0.9940000  *   -6.650000  *   -3.169000  *
    31       C          1.7710000  *   -4.878000  *   -2.367000  *
    32       C          1.3770000  *   -4.401000  *   -1.132000  *
    33       H          2.7420000  *   -4.618000  *   -2.761000  *
    34       H          2.0430000  *   -3.771000  *   -0.560000  *
    35       O         -1.9410000  *   -5.870000  *   -0.856000  *
    36       H         -2.6420000  *   -5.248000  *   -1.095000  *
    37       O          1.3030000  *   -6.152000  *   -4.322000  *
    38       H          1.0670000  *   -5.570000  *   -5.057000  *
    39       C         -0.0190000  *    1.526000  *    0.010000  *
    40       H          1.0040000  *    1.903000  *    0.003000  *
    41       H         -0.5460000  *    1.887000  *   -0.873000  *
    42       H         -0.5290000  *    1.877000  *    0.907000  *
    43       C          0.7010000  *   -0.505000  *   -1.263000  *
    44       H          1.7240000  *   -0.130000  *   -1.286000  *
    45       H          0.7130000  *   -1.595000  *   -1.265000  *
    46       H          0.1640000  *   -0.147000  *   -2.141000  *
    47       C          2.8790000  *   -5.975000  *    5.250000  *
    48       H          3.2360000  *   -5.146000  *    5.861000  *
    49       H          2.3750000  *   -6.704000  *    5.886000  *
    50       H          3.7240000  *   -6.451000  *    4.753000  *
    51       C          0.7010000  *   -4.797000  *    4.891000  *
    52       H         -0.0010000  *   -4.436000  *    4.139000  *
    53       H          0.2050000  *   -5.529000  *    5.528000  *
    54       H          1.0440000  *   -3.960000  *    5.499000  *
 


          CARTESIAN COORDINATES 

    NO.       ATOM         X         Y         Z

     1         C        0.0020   -0.0040    0.0020
     2         C        0.7410   -0.5180    1.2390
     3         C        0.7380   -2.0280    1.2450
     4         C       -0.2890   -2.7110    0.7060
     5         C       -0.2870   -4.2190    0.7280
     6         C        0.6680   -4.7290    1.7790
     7         C        1.6410   -3.9270    2.2510
     8         C        2.6000   -4.4270    3.3040
     9         C        1.8990   -5.4500    4.2000
    10         C        1.4240   -6.6030    3.3120
    11         C        0.5160   -6.0470    2.2490
    12         O       -0.3640   -6.7470    1.7890
    13         O        1.7820   -2.6710    1.7950
    14         C       -1.3770   -2.0440    0.1130
    15         O       -2.2900   -2.6930   -0.3580
    16         C       -1.4310   -0.5420    0.0530
    17         H        1.7690   -0.1570    1.2230
    18         H        0.2430   -0.1510    2.1370
    19         H       -1.2920   -4.5770    0.9520
    20         H        3.4570   -4.8960    2.8200
    21         H        2.9420   -3.5880    3.9110
    22         H        2.2830   -7.0840    2.8440
    23         H        0.8800   -7.3300    3.9150
    24         H       -1.9350   -0.1580    0.9400
    25         H       -1.9710   -0.2300   -0.8400
    26         C        0.1370   -4.7360   -0.6220
    27         C       -0.7200   -5.5450   -1.3550
    28         C       -0.3290   -6.0210   -2.5980
    29         C        0.9170   -5.6870   -3.1040
    30         H       -0.9940   -6.6500   -3.1690
    31         C        1.7710   -4.8780   -2.3670
    32         C        1.3770   -4.4010   -1.1320
    33         H        2.7420   -4.6180   -2.7610
    34         H        2.0430   -3.7710   -0.5600
    35         O       -1.9410   -5.8700   -0.8560
    36         H       -2.6420   -5.2480   -1.0950
    37         O        1.3030   -6.1520   -4.3220
    38         H        1.0670   -5.5700   -5.0570
    39         C       -0.0190    1.5260    0.0100
    40         H        1.0040    1.9030    0.0030
    41         H       -0.5460    1.8870   -0.8730
    42         H       -0.5290    1.8770    0.9070
    43         C        0.7010   -0.5050   -1.2630
    44         H        1.7240   -0.1300   -1.2860
    45         H        0.7130   -1.5950   -1.2650
    46         H        0.1640   -0.1470   -2.1410
    47         C        2.8790   -5.9750    5.2500
    48         H        3.2360   -5.1460    5.8610
    49         H        2.3750   -6.7040    5.8860
    50         H        3.7240   -6.4510    4.7530
    51         C        0.7010   -4.7970    4.8910
    52         H       -0.0010   -4.4360    4.1390
    53         H        0.2050   -5.5290    5.5280
    54         H        1.0440   -3.9600    5.4990

 General Reference for PM6:
 "Optimization of Parameters for Semiempirical Methods V: Modification of NDDO Approximations
 and Application to 70 Elements", J. J. P. Stewart, J. Mol. Mod., 13, 1173-1213 (2007)
 URL: http://www.springerlink.com/content/ar33482301010477/fulltext.pdf

           Empirical Formula: C23 H26 O5  =    54 atoms



      MOLECULAR POINT GROUP   :   C1  


      RHF CALCULATION, NO. OF DOUBLY OCCUPIED LEVELS =   74

      Geometry optimization using EF
  SCF CRITERION =    0.1000E-04

          DIAGONAL MATRIX USED AS START HESSIAN

 CYCLE:     1 TIME:   0.269 TIME LEFT: 16.53W  GRAD.:   187.575 HEAT:-193.7793
 CYCLE:     2 TIME:   0.146 TIME LEFT: 16.53W  GRAD.:   182.881 HEAT:-201.6086
 CYCLE:     3 TIME:   0.146 TIME LEFT: 16.53W  GRAD.:   178.804 HEAT:-207.1189
 CYCLE:     4 TIME:   0.147 TIME LEFT: 16.53W  GRAD.:   295.191 HEAT:-195.7803
 CYCLE:     5 TIME:   0.146 TIME LEFT: 16.53W  GRAD.:   217.329 HEAT:-204.5743
 CYCLE:     6 TIME:   0.149 TIME LEFT: 16.53W  GRAD.:   290.521 HEAT:-199.4392
 CYCLE:     7 TIME:   0.151 TIME LEFT: 16.53W  GRAD.:   270.081 HEAT:-199.1976
 CYCLE:     8 TIME:   0.145 TIME LEFT: 16.53W  GRAD.:   176.946 HEAT:-208.9002
 CYCLE:     9 TIME:   0.148 TIME LEFT: 16.53W  GRAD.:   307.133 HEAT:-197.6703
 CYCLE:    10 TIME:   0.145 TIME LEFT: 16.53W  GRAD.:   302.660 HEAT:-199.9634
 CYCLE:    11 TIME:   0.145 TIME LEFT: 16.53W  GRAD.:   258.091 HEAT:-202.1296
 CYCLE:    12 TIME:   0.147 TIME LEFT: 16.53W  GRAD.:   267.658 HEAT:-202.8546
 CYCLE:    13 TIME:   0.148 TIME LEFT: 16.53W  GRAD.:   265.390 HEAT:-203.1179
 CYCLE:    14 TIME:   0.144 TIME LEFT: 16.53W  GRAD.:   285.558 HEAT:-199.3747
 CYCLE:    15 TIME:   0.153 TIME LEFT: 16.53W  GRAD.:   190.067 HEAT:-207.5177
 CYCLE:    16 TIME:   0.142 TIME LEFT: 16.53W  GRAD.:   263.586 HEAT:-203.7529
 CYCLE:    17 TIME:   0.167 TIME LEFT: 16.53W  GRAD.:   272.403 HEAT:-200.4783
 CYCLE:    18 TIME:   0.157 TIME LEFT: 16.53W  GRAD.:   271.830 HEAT:-203.4127
 CYCLE:    19 TIME:   0.147 TIME LEFT: 16.53W  GRAD.:   232.724 HEAT:-205.3920
 CYCLE:    20 TIME:   0.169 TIME LEFT: 16.53W  GRAD.:   270.852 HEAT:-202.5479
 CYCLE:    21 TIME:   0.158 TIME LEFT: 16.53W  GRAD.:   261.899 HEAT:-203.6278
 CYCLE:    22 TIME:   0.150 TIME LEFT: 16.53W  GRAD.:   284.318 HEAT:-201.4748
 CYCLE:    23 TIME:   0.146 TIME LEFT: 16.53W  GRAD.:   264.561 HEAT:-202.8242
 CYCLE:    24 TIME:   0.160 TIME LEFT: 16.53W  GRAD.:   204.461 HEAT:-208.0856
 CYCLE:    25 TIME:   0.150 TIME LEFT: 16.53W  GRAD.:   249.392 HEAT:-205.6295
 CYCLE:    26 TIME:   0.154 TIME LEFT: 16.53W  GRAD.:   217.283 HEAT:-207.4800
 CYCLE:    27 TIME:   0.156 TIME LEFT: 16.53W  GRAD.:   242.594 HEAT:-205.4286
 CYCLE:    28 TIME:   0.149 TIME LEFT: 16.53W  GRAD.:   202.300 HEAT:-208.7006
 CYCLE:    29 TIME:   0.157 TIME LEFT: 16.53W  GRAD.:   177.351 HEAT:-210.0151
 CYCLE:    30 TIME:   0.147 TIME LEFT: 16.53W  GRAD.:   229.554 HEAT:-207.1625
 CYCLE:    31 TIME:   0.151 TIME LEFT: 16.53W  GRAD.:   160.350 HEAT:-211.2137
 CYCLE:    32 TIME:   0.143 TIME LEFT: 16.53W  GRAD.:   221.193 HEAT:-209.0943
 CYCLE:    33 TIME:   0.149 TIME LEFT: 16.53W  GRAD.:   132.169 HEAT:-215.0337
 CYCLE:    34 TIME:   0.145 TIME LEFT: 16.53W  GRAD.:   217.096 HEAT:-207.4911
 CYCLE:    35 TIME:   0.150 TIME LEFT: 16.53W  GRAD.:   116.791 HEAT:-216.2281
 CYCLE:    36 TIME:   0.143 TIME LEFT: 16.53W  GRAD.:   205.585 HEAT:-208.9744
 CYCLE:    37 TIME:   0.153 TIME LEFT: 16.53W  GRAD.:    96.339 HEAT:-217.6700
 CYCLE:    38 TIME:   0.143 TIME LEFT: 16.53W  GRAD.:   175.511 HEAT:-210.7124
 CYCLE:    39 TIME:   0.144 TIME LEFT: 16.53W  GRAD.:    95.967 HEAT:-217.8681
 CYCLE:    40 TIME:   0.145 TIME LEFT: 16.53W  GRAD.:   161.642 HEAT:-212.5528
 CYCLE:    41 TIME:   0.146 TIME LEFT: 16.53W  GRAD.:   122.549 HEAT:-215.8855
 CYCLE:    42 TIME:   0.146 TIME LEFT: 16.53W  GRAD.:   129.040 HEAT:-215.5079
 CYCLE:    43 TIME:   0.146 TIME LEFT: 16.53W  GRAD.:   113.029 HEAT:-217.5853
 CYCLE:    44 TIME:   0.143 TIME LEFT: 16.53W  GRAD.:   154.830 HEAT:-213.3405
 CYCLE:    45 TIME:   0.151 TIME LEFT: 16.53W  GRAD.:    96.117 HEAT:-218.9419
 CYCLE:    46 TIME:   0.143 TIME LEFT: 16.53W  GRAD.:   181.716 HEAT:-211.1737
 CYCLE:    47 TIME:   0.144 TIME LEFT: 16.53W  GRAD.:   123.454 HEAT:-216.6373
 CYCLE:    48 TIME:   0.145 TIME LEFT: 16.53W  GRAD.:   121.345 HEAT:-217.1372
 CYCLE:    49 TIME:   0.142 TIME LEFT: 16.53W  GRAD.:   130.109 HEAT:-216.4004
 CYCLE:    50 TIME:   0.142 TIME LEFT: 16.53W  GRAD.:   127.194 HEAT:-216.5395
 CYCLE:    51 TIME:   0.144 TIME LEFT: 16.53W  GRAD.:   132.841 HEAT:-216.1286
 CYCLE:    52 TIME:   0.144 TIME LEFT: 16.53W  GRAD.:   136.685 HEAT:-216.2385
 CYCLE:    53 TIME:   0.144 TIME LEFT: 16.53W  GRAD.:   130.271 HEAT:-215.7979
 CYCLE:    54 TIME:   0.144 TIME LEFT: 16.53W  GRAD.:   124.604 HEAT:-217.9476
 CYCLE:    55 TIME:   0.144 TIME LEFT: 16.53W  GRAD.:   154.371 HEAT:-214.3775
 CYCLE:    56 TIME:   0.146 TIME LEFT: 16.53W  GRAD.:   117.846 HEAT:-218.3763
 CYCLE:    57 TIME:   0.142 TIME LEFT: 16.53W  GRAD.:   131.669 HEAT:-216.4448
 CYCLE:    58 TIME:   0.144 TIME LEFT: 16.53W  GRAD.:   133.758 HEAT:-217.1950
 CYCLE:    59 TIME:   0.146 TIME LEFT: 16.53W  GRAD.:   127.702 HEAT:-217.4512
 CYCLE:    60 TIME:   0.144 TIME LEFT: 16.53W  GRAD.:   137.763 HEAT:-216.8428
 CYCLE:    61 TIME:   0.143 TIME LEFT: 16.53W  GRAD.:   127.832 HEAT:-217.0634
 CYCLE:    62 TIME:   0.143 TIME LEFT: 16.53W  GRAD.:   122.559 HEAT:-218.5185
 CYCLE:    63 TIME:   0.147 TIME LEFT: 16.53W  GRAD.:   127.696 HEAT:-217.6156
 CYCLE:    64 TIME:   0.143 TIME LEFT: 16.53W  GRAD.:   134.290 HEAT:-217.3225
 CYCLE:    65 TIME:   0.144 TIME LEFT: 16.53W  GRAD.:   119.829 HEAT:-218.7320
 CYCLE:    66 TIME:   0.144 TIME LEFT: 16.53W  GRAD.:   157.837 HEAT:-215.2625
 CYCLE:    67 TIME:   0.137 TIME LEFT: 16.53W  GRAD.:    98.800 HEAT:-220.4722
 CYCLE:    68 TIME:   0.144 TIME LEFT: 16.53W  GRAD.:   146.679 HEAT:-216.1368
 CYCLE:    69 TIME:   0.147 TIME LEFT: 16.53W  GRAD.:    98.340 HEAT:-220.8170
 CYCLE:    70 TIME:   0.142 TIME LEFT: 16.53W  GRAD.:   138.968 HEAT:-217.0193
 CYCLE:    71 TIME:   0.149 TIME LEFT: 16.53W  GRAD.:    84.668 HEAT:-222.1655
 CYCLE:    72 TIME:   0.142 TIME LEFT: 16.53W  GRAD.:   161.828 HEAT:-214.5576
 CYCLE:    73 TIME:   0.148 TIME LEFT: 16.53W  GRAD.:    68.316 HEAT:-223.1249
 CYCLE:    74 TIME:   0.142 TIME LEFT: 16.53W  GRAD.:   137.239 HEAT:-217.4921
 CYCLE:    75 TIME:   0.142 TIME LEFT: 16.53W  GRAD.:    95.158 HEAT:-221.7872
 CYCLE:    76 TIME:   0.144 TIME LEFT: 16.53W  GRAD.:   118.806 HEAT:-219.2378
 CYCLE:    77 TIME:   0.142 TIME LEFT: 16.53W  GRAD.:    99.823 HEAT:-221.7427
 CYCLE:    78 TIME:   0.143 TIME LEFT: 16.53W  GRAD.:   123.628 HEAT:-219.1126
 CYCLE:    79 TIME:   0.141 TIME LEFT: 16.53W  GRAD.:    88.554 HEAT:-222.3041
 CYCLE:    80 TIME:   0.141 TIME LEFT: 16.53W  GRAD.:   109.157 HEAT:-220.8110
 CYCLE:    81 TIME:   0.137 TIME LEFT: 16.53W  GRAD.:   104.955 HEAT:-221.8472
 CYCLE:    82 TIME:   0.144 TIME LEFT: 16.53W  GRAD.:   113.132 HEAT:-220.5898
 CYCLE:    83 TIME:   0.140 TIME LEFT: 16.53W  GRAD.:    49.545 HEAT:-225.5778
 CYCLE:    84 TIME:   0.142 TIME LEFT: 16.53W  GRAD.:   152.680 HEAT:-217.3912
 CYCLE:    85 TIME:   0.145 TIME LEFT: 16.53W  GRAD.:    50.114 HEAT:-225.8555
 CYCLE:    86 TIME:   0.142 TIME LEFT: 16.53W  GRAD.:   143.178 HEAT:-216.9489
 CYCLE:    87 TIME:   0.141 TIME LEFT: 16.53W  GRAD.:    40.123 HEAT:-226.4999
 CYCLE:    88 TIME:   0.141 TIME LEFT: 16.53W  GRAD.:   165.964 HEAT:-215.6711
 CYCLE:    89 TIME:   0.141 TIME LEFT: 16.53W  GRAD.:    28.338 HEAT:-227.0723
 CYCLE:    90 TIME:   0.141 TIME LEFT: 16.53W  GRAD.:   107.324 HEAT:-222.4158
 CYCLE:    91 TIME:   0.134 TIME LEFT: 16.53W  GRAD.:    32.077 HEAT:-227.2529
 CYCLE:    92 TIME:   0.140 TIME LEFT: 16.53W  GRAD.:    98.341 HEAT:-222.6366
 CYCLE:    93 TIME:   0.141 TIME LEFT: 16.53W  GRAD.:    21.651 HEAT:-227.8644
 CYCLE:    94 TIME:   0.142 TIME LEFT: 16.53W  GRAD.:    87.158 HEAT:-224.8962
 CYCLE:    95 TIME:   0.133 TIME LEFT: 16.53W  GRAD.:    18.609 HEAT:-228.2176
 CYCLE:    96 TIME:   0.133 TIME LEFT: 16.53W  GRAD.:    51.995 HEAT:-227.0990
 CYCLE:    97 TIME:   0.133 TIME LEFT: 16.53W  GRAD.:    16.320 HEAT:-228.5503
 CYCLE:    98 TIME:   0.134 TIME LEFT: 16.53W  GRAD.:    68.270 HEAT:-226.9042
 CYCLE:    99 TIME:   0.133 TIME LEFT: 16.53W  GRAD.:    11.360 HEAT:-228.9149
 CYCLE:   100 TIME:   0.133 TIME LEFT: 16.53W  GRAD.:    31.627 HEAT:-228.6883
 CYCLE:   101 TIME:   0.132 TIME LEFT: 16.53W  GRAD.:    19.150 HEAT:-229.2790
 CYCLE:   102 TIME:   0.141 TIME LEFT: 16.53W  GRAD.:    41.680 HEAT:-228.9036
 CYCLE:   103 TIME:   0.132 TIME LEFT: 16.53W  GRAD.:    17.409 HEAT:-229.6357
 CYCLE:   104 TIME:   0.132 TIME LEFT: 16.53W  GRAD.:    44.243 HEAT:-228.8314
 CYCLE:   105 TIME:   0.132 TIME LEFT: 16.53W  GRAD.:    22.747 HEAT:-229.6764
 CYCLE:   106 TIME:   0.133 TIME LEFT: 16.53W  GRAD.:    60.959 HEAT:-227.9793
 CYCLE:   107 TIME:   0.132 TIME LEFT: 16.53W  GRAD.:     5.998 HEAT:-230.0446
 CYCLE:   108 TIME:   0.132 TIME LEFT: 16.53W  GRAD.:    15.984 HEAT:-229.8854
 CYCLE:   109 TIME:   0.127 TIME LEFT: 16.53W  GRAD.:     8.924 HEAT:-230.0543
 CYCLE:   110 TIME:   0.132 TIME LEFT: 16.53W  GRAD.:    19.167 HEAT:-229.8729
 CYCLE:   111 TIME:   0.131 TIME LEFT: 16.53W  GRAD.:     3.863 HEAT:-230.0797
 CYCLE:   112 TIME:   0.128 TIME LEFT: 16.53W  GRAD.:    13.932 HEAT:-230.0011
 CYCLE:   113 TIME:   0.128 TIME LEFT: 16.53W  GRAD.:     5.164 HEAT:-230.0969
 CYCLE:   114 TIME:   0.128 TIME LEFT: 16.53W  GRAD.:    14.571 HEAT:-229.9918
 CYCLE:   115 TIME:   0.127 TIME LEFT: 16.53W  GRAD.:     3.037 HEAT:-230.1179
 CYCLE:   116 TIME:   0.132 TIME LEFT: 16.53W  GRAD.:     7.967 HEAT:-230.0792
 CYCLE:   117 TIME:   0.122 TIME LEFT: 16.53W  GRAD.:     4.768 HEAT:-230.1036
 CYCLE:   118 TIME:   0.127 TIME LEFT: 16.53W  GRAD.:    13.367 HEAT:-230.0771
 CYCLE:   119 TIME:   0.127 TIME LEFT: 16.53W  GRAD.:     2.170 HEAT:-230.1724
 CYCLE:   120 TIME:   0.132 TIME LEFT: 16.53W  GRAD.:     5.953 HEAT:-230.1449
 CYCLE:   121 TIME:   0.127 TIME LEFT: 16.53W  GRAD.:     4.414 HEAT:-230.2005
 CYCLE:   122 TIME:   0.132 TIME LEFT: 16.53W  GRAD.:     8.146 HEAT:-230.1914
 CYCLE:   123 TIME:   0.127 TIME LEFT: 16.53W  GRAD.:     5.593 HEAT:-230.1639
 CYCLE:   124 TIME:   0.133 TIME LEFT: 16.53W  GRAD.:     7.457 HEAT:-230.2162
 CYCLE:   125 TIME:   0.126 TIME LEFT: 16.53W  GRAD.:     5.171 HEAT:-230.3247
 CYCLE:   126 TIME:   0.137 TIME LEFT: 16.53W  GRAD.:     5.773 HEAT:-230.4858
 CYCLE:   127 TIME:   0.131 TIME LEFT: 16.53W  GRAD.:     6.279 HEAT:-230.4788
 CYCLE:   128 TIME:   0.132 TIME LEFT: 16.53W  GRAD.:     5.040 HEAT:-230.5342
 CYCLE:   129 TIME:   0.131 TIME LEFT: 16.53W  GRAD.:     7.085 HEAT:-230.5702
 CYCLE:   130 TIME:   0.132 TIME LEFT: 16.53W  GRAD.:     7.107 HEAT:-230.6443
 CYCLE:   131 TIME:   0.132 TIME LEFT: 16.53W  GRAD.:     6.694 HEAT:-230.7026
 CYCLE:   132 TIME:   0.132 TIME LEFT: 16.53W  GRAD.:     9.996 HEAT:-230.6821
 CYCLE:   133 TIME:   0.132 TIME LEFT: 16.53W  GRAD.:     9.653 HEAT:-230.7952
 CYCLE:   134 TIME:   0.129 TIME LEFT: 16.53W  GRAD.:     7.542 HEAT:-230.9014
 CYCLE:   135 TIME:   0.126 TIME LEFT: 16.53W  GRAD.:     3.539 HEAT:-230.9515
 CYCLE:   136 TIME:   0.131 TIME LEFT: 16.53W  GRAD.:     4.346 HEAT:-231.0324
 CYCLE:   137 TIME:   0.132 TIME LEFT: 16.53W  GRAD.:     7.502 HEAT:-231.1099
 CYCLE:   138 TIME:   0.132 TIME LEFT: 16.53W  GRAD.:     7.077 HEAT:-231.2028
 CYCLE:   139 TIME:   0.130 TIME LEFT: 16.53W  GRAD.:     6.414 HEAT:-231.3087
 CYCLE:   140 TIME:   0.131 TIME LEFT: 16.53W  GRAD.:     6.856 HEAT:-231.4666
 CYCLE:   141 TIME:   0.131 TIME LEFT: 16.53W  GRAD.:     5.796 HEAT:-231.5185
 CYCLE:   142 TIME:   0.130 TIME LEFT: 16.53W  GRAD.:     5.202 HEAT:-231.6183
 CYCLE:   143 TIME:   0.131 TIME LEFT: 16.53W  GRAD.:     5.374 HEAT:-231.7243
 CYCLE:   144 TIME:   0.128 TIME LEFT: 16.53W  GRAD.:     4.141 HEAT:-231.7454
 CYCLE:   145 TIME:   0.132 TIME LEFT: 16.53W  GRAD.:     4.858 HEAT:-231.7581
 CYCLE:   146 TIME:   0.127 TIME LEFT: 16.53W  GRAD.:     2.831 HEAT:-231.7518
 CYCLE:   147 TIME:   0.131 TIME LEFT: 16.53W  GRAD.:     1.909 HEAT:-231.8023
 CYCLE:   148 TIME:   0.132 TIME LEFT: 16.53W  GRAD.:     1.373 HEAT:-231.7791
 CYCLE:   149 TIME:   0.131 TIME LEFT: 16.53W  GRAD.:     1.096 HEAT:-231.7911
 CYCLE:   150 TIME:   0.131 TIME LEFT: 16.53W  GRAD.:     1.121 HEAT:-231.7922
 CYCLE:   151 TIME:   0.132 TIME LEFT: 16.53W  GRAD.:     0.956 HEAT:-231.7932
 CYCLE:   152 TIME:   0.132 TIME LEFT: 16.53W  GRAD.:     0.937 HEAT:-231.7993
 CYCLE:   153 TIME:   0.130 TIME LEFT: 16.53W  GRAD.:     0.817 HEAT:-231.7916
 CYCLE:   154 TIME:   0.132 TIME LEFT: 16.53W  GRAD.:     0.678 HEAT:-231.7911
 CYCLE:   155 TIME:   0.131 TIME LEFT: 16.53W  GRAD.:     0.641 HEAT:-231.7973
 CYCLE:   156 TIME:   0.131 TIME LEFT: 16.53W  GRAD.:     0.443 HEAT:-231.8140
 CYCLE:   157 TIME:   0.131 TIME LEFT: 16.53W  GRAD.:     0.398 HEAT:-231.8147
 CYCLE:   158 TIME:   0.131 TIME LEFT: 16.53W  GRAD.:     0.430 HEAT:-231.8200
 CYCLE:   159 TIME:   0.132 TIME LEFT: 16.53W  GRAD.:     0.430 HEAT:-231.8218
 CYCLE:   160 TIME:   0.131 TIME LEFT: 16.53W  GRAD.:     0.431 HEAT:-231.8161
 CYCLE:   161 TIME:   0.131 TIME LEFT: 16.53W  GRAD.:     0.470 HEAT:-231.8145
 CYCLE:   162 TIME:   0.131 TIME LEFT: 16.53W  GRAD.:     0.456 HEAT:-231.8176
 CYCLE:   163 TIME:   0.133 TIME LEFT: 16.53W  GRAD.:     0.512 HEAT:-231.8069
 CYCLE:   164 TIME:   0.131 TIME LEFT: 16.53W  GRAD.:     0.472 HEAT:-231.8082
 CYCLE:   165 TIME:   0.167 TIME LEFT: 16.53W  GRAD.:     0.554 HEAT:-231.8266
 CYCLE:   166 TIME:   0.169 TIME LEFT: 16.53W  GRAD.:     0.494 HEAT:-231.8350
 CYCLE:   167 TIME:   0.132 TIME LEFT: 16.53W  GRAD.:     0.495 HEAT:-231.8347
 CYCLE:   168 TIME:   0.131 TIME LEFT: 16.53W  GRAD.:     0.430 HEAT:-231.8340
 CYCLE:   169 TIME:   0.131 TIME LEFT: 16.53W  GRAD.:     0.402 HEAT:-231.8370
 CYCLE:   170 TIME:   0.132 TIME LEFT: 16.53W  GRAD.:     0.374 HEAT:-231.8361
 CYCLE:   171 TIME:   0.128 TIME LEFT: 16.53W  GRAD.:     0.287 HEAT:-231.8254
 CYCLE:   172 TIME:   0.132 TIME LEFT: 16.53W  GRAD.:     0.412 HEAT:-231.8294
 CYCLE:   173 TIME:   0.134 TIME LEFT: 16.53W  GRAD.:     0.236 HEAT:-231.8338
 CYCLE:   174 TIME:   0.128 TIME LEFT: 16.53W  GRAD.:     0.230 HEAT:-231.8334
 CYCLE:   175 TIME:   0.127 TIME LEFT: 16.53W  GRAD.:     0.401 HEAT:-231.8237
 CYCLE:   176 TIME:   0.132 TIME LEFT: 16.53W  GRAD.:     0.487 HEAT:-231.8319
 CYCLE:   177 TIME:   0.126 TIME LEFT: 16.53W  GRAD.:     0.320 HEAT:-231.8316
 CYCLE:   178 TIME:   0.132 TIME LEFT: 16.53W  GRAD.:     0.296 HEAT:-231.8085
 CYCLE:   179 TIME:   0.131 TIME LEFT: 16.53W  GRAD.:     0.244 HEAT:-231.8166
 CYCLE:   180 TIME:   0.127 TIME LEFT: 16.53W  GRAD.:     0.184 HEAT:-231.8287
 CYCLE:   181 TIME:   0.126 TIME LEFT: 16.53W  GRAD.:     0.156 HEAT:-231.8259
 CYCLE:   182 TIME:   0.127 TIME LEFT: 16.53W  GRAD.:     0.260 HEAT:-231.8363
 CYCLE:   183 TIME:   0.127 TIME LEFT: 16.53W  GRAD.:     0.162 HEAT:-231.8382
 CYCLE:   184 TIME:   0.125 TIME LEFT: 16.53W  GRAD.:     0.227 HEAT:-231.8301
 CYCLE:   185 TIME:   0.126 TIME LEFT: 16.53W  GRAD.:     0.227 HEAT:-231.8256
 CYCLE:   186 TIME:   0.126 TIME LEFT: 16.53W  GRAD.:     0.129 HEAT:-231.8301

     RMS GRADIENT =  0.12874  IS LESS THAN CUTOFF =  0.15000



 -------------------------------------------------------------------------------
 PM6 T=31535704 DUMP=4320 XYZ EPS=78.40 RSOLV=1.30 MULLIK SYBYL +
 CHARGE=0 RELSCF=0.1 LET DDMIN=0.0 GNORM=0.15
 SJ000002349-1_T001S001I001C02: Geometry optimization step



     GEOMETRY OPTIMISED USING EIGENVECTOR FOLLOWING (EF).     
     SCF FIELD WAS ACHIEVED                                   


                               PM6     CALCULATION
                                                       MOPAC2009 (Version: 9.015L)
                                                       Tue Sep  6 16:26:14 2011




          FINAL HEAT OF FORMATION =       -231.83013 KCAL =    -969.97727 KJ
          VAN DER WAALS AREA      =        371.76 SQUARE ANGSTROMS


          TOTAL ENERGY            =      -4629.84484 EV
          ELECTRONIC ENERGY       =      -8772.19148 EV  POINT GROUP:     C1  
          CORE-CORE REPULSION     =       4142.34664 EV
          DIELECTRIC ENERGY       =         -1.40998 EV
          COSMO AREA              =        371.76 SQUARE ANGSTROMS
          COSMO VOLUME            =        462.27 CUBIC ANGSTROMS

          IONIZATION POTENTIAL    =          9.154538 EV
          HOMO LUMO ENERGIES (EV) =         -9.155 -0.957
          NO. OF FILLED LEVELS    =         74
          MOLECULAR WEIGHT        =        382.455

          MOLECULAR DIMENSIONS (Angstroms)

            Atom       Atom       Distance
            H    54    H    38    11.03398
            H    49    H    41    10.72771
            H    36    H    44     5.41783


          SCF CALCULATIONS        =        188
          COMPUTATION TIME        =         26.005 SECONDS




   ATOM   CHEMICAL          X               Y              Z
  NUMBER   SYMBOL      (ANGSTROMS)     (ANGSTROMS)    (ANGSTROMS)
 
     1       C         -0.0365024  *    0.091036  *   -0.040554  *
     2       C          0.6950604  *   -0.484303  *    1.208645  *
     3       C          0.5692269  *   -1.958144  *    1.265358  *
     4       C         -0.3770469  *   -2.713803  *    0.656061  *
     5       C         -0.3330201  *   -4.223925  *    0.696809  *
     6       C          0.5637962  *   -4.682914  *    1.820997  *
     7       C          1.4586627  *   -3.855080  *    2.406368  *
     8       C          2.4529322  *   -4.202955  *    3.447129  *
     9       C          2.0329999  *   -5.486873  *    4.224155  *
    10       C          1.5501824  *   -6.557989  *    3.213310  *
    11       C          0.4696150  *   -6.078001  *    2.281562  *
    12       O         -0.4321664  *   -6.826534  *    1.927447  *
    13       O          1.5561246  *   -2.500392  *    2.080422  *
    14       C         -1.4622210  *   -2.047273  *   -0.064194  *
    15       O         -2.4018818  *   -2.676687  *   -0.560314  *
    16       C         -1.4456618  *   -0.547997  *   -0.139239  *
    17       H          1.7619973  *   -0.163603  *    1.214861  *
    18       H          0.2764665  *   -0.035340  *    2.142881  *
    19       H         -1.3748620  *   -4.609918  *    0.896159  *
    20       H          3.4523057  *   -4.351335  *    2.969967  *
    21       H          2.6180512  *   -3.360182  *    4.156360  *
    22       H          2.4097255  *   -6.916693  *    2.600880  *
    23       H          1.2128017  *   -7.464260  *    3.761380  *
    24       H         -2.0983737  *   -0.152045  *    0.676048  *
    25       H         -1.9493436  *   -0.202991  *   -1.069596  *
    26       C          0.1400774  *   -4.776008  *   -0.633441  *
    27       C         -0.7939945  *   -5.219574  *   -1.596947  *
    28       C         -0.4034344  *   -5.816753  *   -2.803270  *
    29       C          0.9697295  *   -5.929036  *   -3.046315  *
    30       H         -1.1456055  *   -6.166073  *   -3.515955  *
    31       C          1.9346343  *   -5.461597  *   -2.138664  *
    32       C          1.5011479  *   -4.889540  *   -0.942822  *
    33       H          2.9928184  *   -5.550316  *   -2.371442  *
    34       H          2.2461042  *   -4.527854  *   -0.227759  *
    35       O         -2.1428235  *   -5.111046  *   -1.416282  *
    36       H         -2.3794287  *   -4.418314  *   -0.681882  *
    37       O          1.4601823  *   -6.493184  *   -4.191457  *
    38       H          0.7318698  *   -6.825956  *   -4.800215  *
    39       C         -0.1790127  *    1.608271  *    0.126168  *
    40       H          0.7987230  *    2.097916  *    0.217501  *
    41       H         -0.6829587  *    2.062142  *   -0.736721  *
    42       H         -0.7600199  *    1.877599  *    1.016506  *
    43       C          0.7703705  *   -0.225085  *   -1.306583  *
    44       H          1.7729245  *    0.218922  *   -1.268105  *
    45       H          0.8998752  *   -1.302232  *   -1.459120  *
    46       H          0.2818591  *    0.173248  *   -2.204625  *
    47       C          3.2501838  *   -6.022754  *    4.987065  *
    48       H          3.6375350  *   -5.284206  *    5.700058  *
    49       H          2.9987404  *   -6.921481  *    5.564624  *
    50       H          4.0762798  *   -6.291368  *    4.317724  *
    51       C          0.9037293  *   -5.149872  *    5.206678  *
    52       H          0.0244121  *   -4.731714  *    4.704783  *
    53       H          0.5708496  *   -6.038986  *    5.756635  *
    54       H          1.2259428  *   -4.416064  *    5.956045  *

           Empirical Formula: C23 H26 O5  =    54 atoms



      MOLECULAR POINT GROUP   :   C1  


                  EIGENVALUES  
 -32.27864 -31.92273 -31.81892 -31.11591 -30.93805 -30.57147 -30.22503 -29.83651
 -28.83159 -27.86586 -26.60209 -26.40447 -26.06311 -25.55482 -25.15727 -24.52753
 -24.45079 -24.06319 -23.38830 -22.43951 -22.00014 -21.69986 -21.20146 -20.38681
 -19.75191 -19.34081 -18.47313 -17.83303 -17.58117 -17.28277 -17.00626 -16.88420
 -16.70127 -16.27833 -16.15280 -15.92685 -15.80668 -15.58256 -15.40727 -15.26015
 -15.15012 -15.06902 -14.95023 -14.83367 -14.75138 -14.51143 -14.40930 -14.31895
 -14.20413 -14.09322 -13.82507 -13.53791 -13.45260 -13.38262 -13.27047 -13.11907
 -13.04549 -12.92265 -12.87251 -12.83065 -12.37869 -12.33293 -12.26689 -12.10797
 -12.00849 -11.99797 -11.88431 -11.79510 -10.98577 -10.84131 -10.62865  -9.92180
  -9.79653  -9.15454  -0.95694  -0.36724  -0.09375   0.04627   0.51151   0.95359
   1.09621   1.91686   2.05361   2.25795   2.34667   2.55557   2.79823   2.87179
   3.12137   3.16053   3.28133   3.41128   3.45417   3.53864   3.62625   3.66463
   3.77311   3.85440   3.89279   3.93726   3.98375   4.09216   4.15649   4.20687
   4.25209   4.32836   4.43872   4.56611   4.61140   4.71057   4.80389   5.10053
   5.12031   5.12809   5.18906   5.26051   5.27364   5.32726   5.62122   5.69007
   5.73596   5.74450   5.77356   5.78382   5.78548   5.79318   5.81518   5.82406
   5.87452   5.90090   6.03949   6.05236   6.09933   6.16877   6.75160   6.76157
   6.85748   6.86634


              NET ATOMIC CHARGES AND DIPOLE CONTRIBUTIONS

  ATOM NO.   TYPE          CHARGE      No. of ELECS.   s-Pop       p-Pop       
    1          C           0.327798        3.6722     1.06681     2.60539
    2          C          -0.461238        4.4612     1.11097     3.35027
    3          C           0.470500        3.5295     1.10738     2.42212
    4          C          -0.502534        4.5025     1.11618     3.38636
    5          C           0.141556        3.8584     1.05214     2.80630
    6          C          -0.477481        4.4775     1.11831     3.35917
    7          C           0.441112        3.5589     1.10755     2.45134
    8          C          -0.454975        4.4550     1.11019     3.34478
    9          C           0.328356        3.6716     1.06693     2.60472
   10          C          -0.545841        4.5458     1.12396     3.42188
   11          C           0.671310        3.3287     1.09039     2.23830
   12          O          -0.624486        6.6245     1.85185     4.77264
   13          O          -0.363824        6.3638     1.83589     4.52793
   14          C           0.674059        3.3259     1.09281     2.23314
   15          O          -0.645173        6.6452     1.85150     4.79368
   16          C          -0.537707        4.5377     1.12245     3.41526
   17          H           0.211844        0.7882     0.78816
   18          H           0.217434        0.7826     0.78257
   19          H           0.141896        0.8581     0.85810
   20          H           0.213605        0.7864     0.78640
   21          H           0.209057        0.7909     0.79094
   22          H           0.211804        0.7882     0.78820
   23          H           0.205976        0.7940     0.79402
   24          H           0.216587        0.7834     0.78341
   25          H           0.210947        0.7891     0.78905
   26          C          -0.318307        4.3183     1.10241     3.21590
   27          C           0.441318        3.5587     1.07590     2.48278
   28          C          -0.541677        4.5417     1.11022     3.43146
   29          C           0.436359        3.5636     1.07468     2.48896
   30          H           0.211865        0.7881     0.78813
   31          C          -0.434341        4.4343     1.10468     3.32966
   32          C           0.066343        3.9337     1.10406     2.82960
   33          H           0.195302        0.8047     0.80470
   34          H           0.152452        0.8475     0.84755
   35          O          -0.554647        6.5546     1.81643     4.73822
   36          H           0.383044        0.6170     0.61696
   37          O          -0.517896        6.5179     1.80619     4.71171
   38          H           0.374182        0.6258     0.62582
   39          C          -0.556275        4.5563     1.09589     3.46039
   40          H           0.172623        0.8274     0.82738
   41          H           0.174184        0.8258     0.82582
   42          H           0.170572        0.8294     0.82943
   43          C          -0.558870        4.5589     1.09635     3.46252
   44          H           0.172380        0.8276     0.82762
   45          H           0.165937        0.8341     0.83406
   46          H           0.173042        0.8270     0.82696
   47          C          -0.555649        4.5556     1.09587     3.45977
   48          H           0.172012        0.8280     0.82799
   49          H           0.173816        0.8262     0.82618
   50          H           0.170205        0.8298     0.82979
   51          C          -0.560888        4.5609     1.09659     3.46430
   52          H           0.166499        0.8335     0.83350
   53          H           0.173331        0.8267     0.82667
   54          H           0.172501        0.8275     0.82750
 DIPOLE           X         Y         Z       TOTAL
 POINT-CHG.     8.763     9.269     7.317    14.705
 HYBRID        -0.508    -0.074    -0.355     0.624
 SUM            8.255     9.195     6.962    14.183


          CARTESIAN COORDINATES 

    NO.       ATOM               X         Y         Z

     1         C                 -0.0365    0.0910   -0.0406
     2         C                  0.6951   -0.4843    1.2086
     3         C                  0.5692   -1.9581    1.2654
     4         C                 -0.3770   -2.7138    0.6561
     5         C                 -0.3330   -4.2239    0.6968
     6         C                  0.5638   -4.6829    1.8210
     7         C                  1.4587   -3.8551    2.4064
     8         C                  2.4529   -4.2030    3.4471
     9         C                  2.0330   -5.4869    4.2242
    10         C                  1.5502   -6.5580    3.2133
    11         C                  0.4696   -6.0780    2.2816
    12         O                 -0.4322   -6.8265    1.9274
    13         O                  1.5561   -2.5004    2.0804
    14         C                 -1.4622   -2.0473   -0.0642
    15         O                 -2.4019   -2.6767   -0.5603
    16         C                 -1.4457   -0.5480   -0.1392
    17         H                  1.7620   -0.1636    1.2149
    18         H                  0.2765   -0.0353    2.1429
    19         H                 -1.3749   -4.6099    0.8962
    20         H                  3.4523   -4.3513    2.9700
    21         H                  2.6181   -3.3602    4.1564
    22         H                  2.4097   -6.9167    2.6009
    23         H                  1.2128   -7.4643    3.7614
    24         H                 -2.0984   -0.1520    0.6760
    25         H                 -1.9493   -0.2030   -1.0696
    26         C                  0.1401   -4.7760   -0.6334
    27         C                 -0.7940   -5.2196   -1.5969
    28         C                 -0.4034   -5.8168   -2.8033
    29         C                  0.9697   -5.9290   -3.0463
    30         H                 -1.1456   -6.1661   -3.5160
    31         C                  1.9346   -5.4616   -2.1387
    32         C                  1.5011   -4.8895   -0.9428
    33         H                  2.9928   -5.5503   -2.3714
    34         H                  2.2461   -4.5279   -0.2278
    35         O                 -2.1428   -5.1110   -1.4163
    36         H                 -2.3794   -4.4183   -0.6819
    37         O                  1.4602   -6.4932   -4.1915
    38         H                  0.7319   -6.8260   -4.8002
    39         C                 -0.1790    1.6083    0.1262
    40         H                  0.7987    2.0979    0.2175
    41         H                 -0.6830    2.0621   -0.7367
    42         H                 -0.7600    1.8776    1.0165
    43         C                  0.7704   -0.2251   -1.3066
    44         H                  1.7729    0.2189   -1.2681
    45         H                  0.8999   -1.3022   -1.4591
    46         H                  0.2819    0.1732   -2.2046
    47         C                  3.2502   -6.0228    4.9871
    48         H                  3.6375   -5.2842    5.7001
    49         H                  2.9987   -6.9215    5.5646
    50         H                  4.0763   -6.2914    4.3177
    51         C                  0.9037   -5.1499    5.2067
    52         H                  0.0244   -4.7317    4.7048
    53         H                  0.5708   -6.0390    5.7566
    54         H                  1.2259   -4.4161    5.9560


          ATOMIC ORBITAL ELECTRON POPULATIONS

   1.06681   0.84883   0.89223   0.86433   1.11097   1.20361   0.99244   1.15422
   1.10738   0.76910   0.89241   0.76061   1.11618   1.11217   1.05552   1.21866
   1.05214   1.03258   0.88290   0.89083   1.11831   1.14700   1.06635   1.14582
   1.10755   0.86426   0.74354   0.84354   1.11019   1.10248   1.14517   1.09713
   1.06693   0.89693   0.83881   0.86898   1.12396   1.14382   1.14781   1.13024
   1.09039   0.74584   0.80593   0.68653   1.85185   1.48153   1.65240   1.63870
   1.83589   1.53995   1.35553   1.63245   1.09281   0.74496   0.85651   0.63167
   1.85150   1.48525   1.74444   1.56399   1.12245   1.13128   1.05278   1.23119
   0.78816   0.78257   0.85810   0.78640   0.79094   0.78820   0.79402   0.78341
   0.78905   1.10241   1.00186   1.18133   1.03271   1.07590   0.75214   0.83924
   0.89140   1.11022   1.06137   1.25796   1.11213   1.07468   0.89870   0.81292
   0.77734   0.78813   1.10468   1.10189   1.18450   1.04328   1.10406   0.98722
   0.87579   0.96659   0.80470   0.84755   1.81643   1.35216   1.69437   1.69168
   0.61696   1.80619   1.53333   1.76266   1.41571   0.62582   1.09589   1.19898
   1.06334   1.19806   0.82738   0.82582   0.82943   1.09635   1.16446   1.18810
   1.10995   0.82762   0.83406   0.82696   1.09587   1.11035   1.18418   1.16525
   0.82799   0.82618   0.82979   1.09659   1.12450   1.19461   1.14519   0.83350
   0.82667   0.82750

           MULLIKEN POPULATION ANALYSIS



        MULLIKEN POPULATIONS AND CHARGES

      NO.  ATOM   POPULATION      CHARGE
        1    C     3.637079      0.362921
        2    C     4.581062     -0.581062
        3    C     3.504716      0.495284
        4    C     4.546118     -0.546118
        5    C     3.851888      0.148112
        6    C     4.519685     -0.519685
        7    C     3.536130      0.463870
        8    C     4.573260     -0.573260
        9    C     3.637074      0.362926
       10    C     4.671816     -0.671816
       11    C     3.281600      0.718400
       12    O     6.650524     -0.650524
       13    O     6.403189     -0.403189
       14    C     3.280431      0.719569
       15    O     6.674757     -0.674757
       16    C     4.663701     -0.663701
       17    H     0.733166      0.266834
       18    H     0.728339      0.271661
       19    H     0.818304      0.181696
       20    H     0.732876      0.267124
       21    H     0.736203      0.263797
       22    H     0.735562      0.264438
       23    H     0.739256      0.260744
       24    H     0.730420      0.269580
       25    H     0.734007      0.265993
       26    C     4.344256     -0.344256
       27    C     3.529881      0.470119
       28    C     4.620085     -0.620085
       29    C     3.539458      0.460542
       30    H     0.724448      0.275552
       31    C     4.503331     -0.503331
       32    C     3.958310      0.041690
       33    H     0.745080      0.254920
       34    H     0.800128      0.199872
       35    O     6.601373     -0.601373
       36    H     0.583184      0.416816
       37    O     6.567491     -0.567491
       38    H     0.593303      0.406697
       39    C     4.702740     -0.702740
       40    H     0.779838      0.220162
       41    H     0.777962      0.222038
       42    H     0.782094      0.217906
       43    C     4.703536     -0.703536
       44    H     0.780150      0.219850
       45    H     0.787499      0.212501
       46    H     0.779387      0.220613
       47    C     4.701857     -0.701857
       48    H     0.780577      0.219423
       49    H     0.778428      0.221572
       50    H     0.782535      0.217465
       51    C     4.706075     -0.706075
       52    H     0.786802      0.213198
       53    H     0.779013      0.220987
       54    H     0.780014      0.219986



 TOTAL CPU TIME:            26.04 SECONDS

 == MOPAC DONE ==
 *******************************************************************************
 ** Site#:  958            For non-commercial use only         Version 9.015L **
 *******************************************************************************
 ** Cite this work as: MOPAC2009, James J. P. Stewart, Stewart Computational  **
 ** Chemistry, Version 9.015L web: HTTP://OpenMOPAC.net                       **
 *******************************************************************************
 **                                                                           **
 **                                MOPAC2009                                  **
 **                                                                           **
 *******************************************************************************

                            PM6 CALCULATION RESULTS


 *******************************************************************************
 *  CALCULATION DONE:                                Tue Sep  6 16:26:14 2011  *
 *  PM6      - The PM6 Hamiltonian to be used
 *  GEO-OK   - OVERRIDE INTERATOMIC DISTANCE CHECK
 *
 *
 *
 *                 CHARGE ON SYSTEM =     0
 *
 *
 *
 *  EPS= 78.400
 *  RSOLV=  1.300
 *  OLDGEO   - PREVIOUS GEOMETRY TO BE USED
 *  T=       - A TIME OF 172800.0 SECONDS REQUESTED
 *  DUMP=N   - RESTART FILE WRITTEN EVERY  4320.000 SECONDS
 *  RELSCF   - DEFAULT SCF CRITERION MULTIPLIED BY   0.100    
 *             (DEFAULT SCFCRT= 0.00010)
 *  THERMO   - THERMODYNAMIC QUANTITIES TO BE CALCULATED
 *******************************************************************************
 PM6 DUMP=4320 RELSCF=0.1 THERMO EPS=78.40 RSOLV=1.30 +
 OLDGEO GEO-OK CHARGE=0
 SJ000002349-1_T001S001I001C02: Free energy calculation

   ATOM   CHEMICAL          X               Y              Z
  NUMBER   SYMBOL      (ANGSTROMS)     (ANGSTROMS)    (ANGSTROMS)
 
     1       C         -0.0365024  *    0.091036  *   -0.040554  *
     2       C          0.6950604  *   -0.484303  *    1.208645  *
     3       C          0.5692269  *   -1.958144  *    1.265358  *
     4       C         -0.3770469  *   -2.713803  *    0.656061  *
     5       C         -0.3330201  *   -4.223925  *    0.696809  *
     6       C          0.5637962  *   -4.682914  *    1.820997  *
     7       C          1.4586627  *   -3.855080  *    2.406368  *
     8       C          2.4529322  *   -4.202955  *    3.447129  *
     9       C          2.0329999  *   -5.486873  *    4.224155  *
    10       C          1.5501824  *   -6.557989  *    3.213310  *
    11       C          0.4696150  *   -6.078001  *    2.281562  *
    12       O         -0.4321664  *   -6.826534  *    1.927447  *
    13       O          1.5561246  *   -2.500392  *    2.080422  *
    14       C         -1.4622210  *   -2.047273  *   -0.064194  *
    15       O         -2.4018818  *   -2.676687  *   -0.560314  *
    16       C         -1.4456618  *   -0.547997  *   -0.139239  *
    17       H          1.7619973  *   -0.163603  *    1.214861  *
    18       H          0.2764665  *   -0.035340  *    2.142881  *
    19       H         -1.3748620  *   -4.609918  *    0.896159  *
    20       H          3.4523057  *   -4.351335  *    2.969967  *
    21       H          2.6180512  *   -3.360182  *    4.156360  *
    22       H          2.4097255  *   -6.916693  *    2.600880  *
    23       H          1.2128017  *   -7.464260  *    3.761380  *
    24       H         -2.0983737  *   -0.152045  *    0.676048  *
    25       H         -1.9493436  *   -0.202991  *   -1.069596  *
    26       C          0.1400774  *   -4.776008  *   -0.633441  *
    27       C         -0.7939945  *   -5.219574  *   -1.596947  *
    28       C         -0.4034344  *   -5.816753  *   -2.803270  *
    29       C          0.9697295  *   -5.929036  *   -3.046315  *
    30       H         -1.1456055  *   -6.166073  *   -3.515955  *
    31       C          1.9346343  *   -5.461597  *   -2.138664  *
    32       C          1.5011479  *   -4.889540  *   -0.942822  *
    33       H          2.9928184  *   -5.550316  *   -2.371442  *
    34       H          2.2461042  *   -4.527854  *   -0.227759  *
    35       O         -2.1428235  *   -5.111046  *   -1.416282  *
    36       H         -2.3794287  *   -4.418314  *   -0.681882  *
    37       O          1.4601823  *   -6.493184  *   -4.191457  *
    38       H          0.7318698  *   -6.825956  *   -4.800215  *
    39       C         -0.1790127  *    1.608271  *    0.126168  *
    40       H          0.7987230  *    2.097916  *    0.217501  *
    41       H         -0.6829587  *    2.062142  *   -0.736721  *
    42       H         -0.7600199  *    1.877599  *    1.016506  *
    43       C          0.7703705  *   -0.225085  *   -1.306583  *
    44       H          1.7729245  *    0.218922  *   -1.268105  *
    45       H          0.8998752  *   -1.302232  *   -1.459120  *
    46       H          0.2818591  *    0.173248  *   -2.204625  *
    47       C          3.2501838  *   -6.022754  *    4.987065  *
    48       H          3.6375350  *   -5.284206  *    5.700058  *
    49       H          2.9987404  *   -6.921481  *    5.564624  *
    50       H          4.0762798  *   -6.291368  *    4.317724  *
    51       C          0.9037293  *   -5.149872  *    5.206678  *
    52       H          0.0244121  *   -4.731714  *    4.704783  *
    53       H          0.5708496  *   -6.038986  *    5.756635  *
    54       H          1.2259428  *   -4.416064  *    5.956045  *
 


          CARTESIAN COORDINATES 

    NO.       ATOM         X         Y         Z

     1         C       -0.0365    0.0910   -0.0406
     2         C        0.6951   -0.4843    1.2086
     3         C        0.5692   -1.9581    1.2654
     4         C       -0.3770   -2.7138    0.6561
     5         C       -0.3330   -4.2239    0.6968
     6         C        0.5638   -4.6829    1.8210
     7         C        1.4587   -3.8551    2.4064
     8         C        2.4529   -4.2030    3.4471
     9         C        2.0330   -5.4869    4.2242
    10         C        1.5502   -6.5580    3.2133
    11         C        0.4696   -6.0780    2.2816
    12         O       -0.4322   -6.8265    1.9274
    13         O        1.5561   -2.5004    2.0804
    14         C       -1.4622   -2.0473   -0.0642
    15         O       -2.4019   -2.6767   -0.5603
    16         C       -1.4457   -0.5480   -0.1392
    17         H        1.7620   -0.1636    1.2149
    18         H        0.2765   -0.0353    2.1429
    19         H       -1.3749   -4.6099    0.8962
    20         H        3.4523   -4.3513    2.9700
    21         H        2.6181   -3.3602    4.1564
    22         H        2.4097   -6.9167    2.6009
    23         H        1.2128   -7.4643    3.7614
    24         H       -2.0984   -0.1520    0.6760
    25         H       -1.9493   -0.2030   -1.0696
    26         C        0.1401   -4.7760   -0.6334
    27         C       -0.7940   -5.2196   -1.5969
    28         C       -0.4034   -5.8168   -2.8033
    29         C        0.9697   -5.9290   -3.0463
    30         H       -1.1456   -6.1661   -3.5160
    31         C        1.9346   -5.4616   -2.1387
    32         C        1.5011   -4.8895   -0.9428
    33         H        2.9928   -5.5503   -2.3714
    34         H        2.2461   -4.5279   -0.2278
    35         O       -2.1428   -5.1110   -1.4163
    36         H       -2.3794   -4.4183   -0.6819
    37         O        1.4602   -6.4932   -4.1915
    38         H        0.7319   -6.8260   -4.8002
    39         C       -0.1790    1.6083    0.1262
    40         H        0.7987    2.0979    0.2175
    41         H       -0.6830    2.0621   -0.7367
    42         H       -0.7600    1.8776    1.0165
    43         C        0.7704   -0.2251   -1.3066
    44         H        1.7729    0.2189   -1.2681
    45         H        0.8999   -1.3022   -1.4591
    46         H        0.2819    0.1732   -2.2046
    47         C        3.2502   -6.0228    4.9871
    48         H        3.6375   -5.2842    5.7001
    49         H        2.9987   -6.9215    5.5646
    50         H        4.0763   -6.2914    4.3177
    51         C        0.9037   -5.1499    5.2067
    52         H        0.0244   -4.7317    4.7048
    53         H        0.5708   -6.0390    5.7566
    54         H        1.2259   -4.4161    5.9560

 General Reference for PM6:
 "Optimization of Parameters for Semiempirical Methods V: Modification of NDDO Approximations
 and Application to 70 Elements", J. J. P. Stewart, J. Mol. Mod., 13, 1173-1213 (2007)
 URL: http://www.springerlink.com/content/ar33482301010477/fulltext.pdf

           Empirical Formula: C23 H26 O5  =    54 atoms



      MOLECULAR POINT GROUP   :   C1  


      RHF CALCULATION, NO. OF DOUBLY OCCUPIED LEVELS =   74

  SCF CRITERION =    0.1000E-04


          HEAT OF FORMATION =    -231.830090 KCALS/MOLE


          INTERNAL COORDINATE DERIVATIVES

   NUMBER  ATOM       BOND         ANGLE      DIHEDRAL

     1       C
     2       C      0.000544
     3       C     -0.005119    -0.005026
     4       C     -0.008510     0.061459    -0.008815
     5       C     -0.064949    -0.067559     0.014285
     6       C      0.025786     0.007800     0.041074
     7       C     -0.047427    -0.021007    -0.028608
     8       C     -0.051144     0.109366    -0.024560
     9       C      0.102837    -0.028966    -0.007595
    10       C     -0.039341     0.000476     0.018176
    11       C     -0.007845     0.035522     0.035517
    12       O     -0.038603    -0.025762     0.025833
    13       O      0.026421    -0.004670    -0.125525
    14       C      0.103593    -0.028792     0.145933
    15       O     -0.068979     0.016117    -0.010689
    16       C      0.074103    -0.058857    -0.090696
    17       H     -0.005766     0.127145     0.121465
    18       H     -0.078243     0.029944     0.049156
    19       H      0.018003    -0.000512    -0.000298
    20       H      0.019423    -0.005983     0.024856
    21       H     -0.014411     0.010977    -0.000597
    22       H     -0.018381    -0.011632    -0.073050
    23       H      0.053223    -0.005785     0.000242
    24       H     -0.024595     0.019363    -0.048674
    25       H     -0.016307     0.016578     0.032221
    26       C      0.010704    -0.057259    -0.044632
    27       C      0.025685    -0.002862     0.002504
    28       C      0.029161     0.007302     0.015877
    29       C      0.067911    -0.060297     0.100706
    30       H     -0.034432    -0.056581    -0.102388
    31       C     -0.077090     0.018979     0.058062
    32       C      0.076900    -0.019664     0.028477
    33       H      0.101005     0.032117     0.016396
    34       H     -0.045104    -0.030408    -0.089702
    35       O     -0.015390     0.003110     0.000086
    36       H      0.018333    -0.010386    -0.015447
    37       O     -0.142627     0.047761     0.060386
    38       H      0.026418    -0.014905    -0.051064
    39       C     -0.316417    -0.022177    -0.009519
    40       H      0.300672    -0.006062    -0.023104
    41       H     -0.013471    -0.025322    -0.005564
    42       H      0.017972    -0.003349     0.019370
    43       C      0.018702     0.016282     0.005587
    44       H      0.011622    -0.002264     0.001274
    45       H      0.003708    -0.001678    -0.015151
    46       H     -0.011969     0.010450     0.030389
    47       C     -0.020733    -0.021314    -0.014024
    48       H      0.017265    -0.007763    -0.001601
    49       H     -0.004432     0.026207    -0.011935
    50       H      0.034019    -0.005465    -0.011908
    51       C      0.009697     0.001844     0.031373
    52       H     -0.016676     0.002470    -0.033205
    53       H     -0.020561     0.014532    -0.008722
    54       H      0.012809    -0.004195    -0.027127


          GRADIENT NORM =   0.70366


          TIME FOR SCF CALCULATION =    0.24

          TIME FOR DERIVATIVES     =    0.08

          MOLECULAR WEIGHT =  382.46



          ROTATIONAL CONSTANTS IN CM(-1)

          A =    0.00658243   B =    0.00543973   C =    0.00368383



           PRINCIPAL MOMENTS OF INERTIA IN UNITS OF 10**(-40)*GRAM-CM**2

          A =     4252.6522   B =     5145.9826   C =     7598.8230


          ORIENTATION OF MOLECULE IN FORCE CALCULATION

    NO.       ATOM         X         Y         Z

     1          C      -2.1834   -3.3643   -0.4182
     2          C      -0.6256   -3.3643   -0.4182
     3          C      -0.0949   -1.9824   -0.4182
     4          C      -0.7488   -0.8642   -0.8178
     5          C      -0.1377    0.5094   -0.6632
     6          C       1.3545    0.3904   -0.4683
     7          C       1.9384   -0.7743   -0.1058
     8          C       3.3684   -1.0003    0.2053
     9          C       4.2685    0.0935   -0.4443
    10          C       3.6267    1.4849   -0.2108
    11          C       2.1948    1.5830   -0.6649
    12          O       1.7638    2.6145   -1.1641
    13          O       1.2224   -1.9664    0.0253
    14          C      -2.0822   -0.9937   -1.4060
    15          O      -2.6888   -0.0242   -1.8722
    16          C      -2.6883   -2.3645   -1.4904
    17          H      -0.2380   -3.9521    0.4452
    18          H      -0.2389   -3.9152   -1.3107
    19          H      -0.3246    1.0959   -1.6094
    20          H       3.5099   -1.0070    1.3136
    21          H       3.7034   -2.0137   -0.1128
    22          H       3.6717    1.7467    0.8718
    23          H       4.2425    2.2682   -0.7035
    24          H      -2.4873   -2.7712   -2.5110
    25          H      -3.7983   -2.2985   -1.4481
    26          C      -0.7784    1.2466    0.4962
    27          C      -1.8259    2.1675    0.2674
    28          C      -2.3892    2.9357    1.2954
    29          C      -1.8978    2.7317    2.5893
    30          H      -3.1803    3.6504    1.0851
    31          C      -0.8895    1.7953    2.8716
    32          C      -0.3454    1.0648    1.8155
    33          H      -0.5464    1.6523    3.8933
    34          H       0.4443    0.3373    2.0258
    35          O      -2.3545    2.3850   -0.9723
    36          H      -2.1325    1.6126   -1.6276
    37          O      -2.3774    3.4260    3.6655
    38          H      -3.0847    4.0939    3.4097
    39          C      -2.6770   -4.7731   -0.7671
    40          H      -2.3254   -5.5156   -0.0397
    41          H      -3.7733   -4.8257   -0.7712
    42          H      -2.3354   -5.1021   -1.7560
    43          C      -2.7030   -2.9530    0.9655
    44          H      -2.3653   -3.6460    1.7462
    45          H      -2.3667   -1.9514    1.2552
    46          H      -3.7997   -2.9490    0.9983
    47          C       5.6498    0.0550    0.2200
    48          H       6.1307   -0.9234    0.0961
    49          H       6.3268    0.8002   -0.2170
    50          H       5.6002    0.2579    1.2965
    51          C       4.4016   -0.1739   -1.9493
    52          H       3.4317   -0.1879   -2.4583
    53          H       5.0146    0.5918   -2.4408
    54          H       4.8828   -1.1399   -2.1469


    FIRST DERIVATIVES WILL BE USED IN THE CALCULATION OF SECOND DERIVATIVES

          ESTIMATED TIME TO COMPLETE CALCULATION =      105.93 SECONDS

    FOR POINT-GROUP C1   THERE ARE   1 UNIQUE SYMMETRY FUNCTIONS.

 STEP:   1 TIME =     0.24 SECS, INTEGRAL =      0.24 TIME LEFT: 172799.44
 STEP:   2 TIME =     0.24 SECS, INTEGRAL =      0.47 TIME LEFT: 172799.20
 STEP:   3 TIME =     0.23 SECS, INTEGRAL =      0.70 TIME LEFT: 172798.97
 STEP:   4 TIME =     0.23 SECS, INTEGRAL =      0.93 TIME LEFT: 172798.74
 STEP:   5 TIME =     0.24 SECS, INTEGRAL =      1.17 TIME LEFT: 172798.50
 STEP:   6 TIME =     0.23 SECS, INTEGRAL =      1.40 TIME LEFT: 172798.27
 STEP:   7 TIME =     0.24 SECS, INTEGRAL =      1.64 TIME LEFT: 172798.03
 STEP:   8 TIME =     0.24 SECS, INTEGRAL =      1.88 TIME LEFT: 172797.79
 STEP:   9 TIME =     0.24 SECS, INTEGRAL =      2.12 TIME LEFT: 172797.55
 STEP:  10 TIME =     0.24 SECS, INTEGRAL =      2.36 TIME LEFT: 172797.32
 STEP:  11 TIME =     0.23 SECS, INTEGRAL =      2.59 TIME LEFT: 172797.09
 STEP:  12 TIME =     0.24 SECS, INTEGRAL =      2.82 TIME LEFT: 172796.85
 STEP:  13 TIME =     0.24 SECS, INTEGRAL =      3.07 TIME LEFT: 172796.61
 STEP:  14 TIME =     0.24 SECS, INTEGRAL =      3.30 TIME LEFT: 172796.37
 STEP:  15 TIME =     0.23 SECS, INTEGRAL =      3.53 TIME LEFT: 172796.14
 STEP:  16 TIME =     0.23 SECS, INTEGRAL =      3.76 TIME LEFT: 172795.91
 STEP:  17 TIME =     0.24 SECS, INTEGRAL =      4.00 TIME LEFT: 172795.67
 STEP:  18 TIME =     0.24 SECS, INTEGRAL =      4.24 TIME LEFT: 172795.43
 STEP:  19 TIME =     0.23 SECS, INTEGRAL =      4.48 TIME LEFT: 172795.20
 STEP:  20 TIME =     0.24 SECS, INTEGRAL =      4.71 TIME LEFT: 172794.96
 STEP:  21 TIME =     0.24 SECS, INTEGRAL =      4.95 TIME LEFT: 172794.72
 STEP:  22 TIME =     0.24 SECS, INTEGRAL =      5.19 TIME LEFT: 172794.49
 STEP:  23 TIME =     0.23 SECS, INTEGRAL =      5.42 TIME LEFT: 172794.26
 STEP:  24 TIME =     0.23 SECS, INTEGRAL =      5.64 TIME LEFT: 172794.03
 STEP:  25 TIME =     0.23 SECS, INTEGRAL =      5.88 TIME LEFT: 172793.80
 STEP:  26 TIME =     0.23 SECS, INTEGRAL =      6.10 TIME LEFT: 172793.57
 STEP:  27 TIME =     0.23 SECS, INTEGRAL =      6.34 TIME LEFT: 172793.34
 STEP:  28 TIME =     0.23 SECS, INTEGRAL =      6.57 TIME LEFT: 172793.10
 STEP:  29 TIME =     0.25 SECS, INTEGRAL =      6.82 TIME LEFT: 172792.85
 STEP:  30 TIME =     0.23 SECS, INTEGRAL =      7.05 TIME LEFT: 172792.63
 STEP:  31 TIME =     0.24 SECS, INTEGRAL =      7.28 TIME LEFT: 172792.39
 STEP:  32 TIME =     0.24 SECS, INTEGRAL =      7.53 TIME LEFT: 172792.15
 STEP:  33 TIME =     0.23 SECS, INTEGRAL =      7.76 TIME LEFT: 172791.91
 STEP:  34 TIME =     0.23 SECS, INTEGRAL =      7.99 TIME LEFT: 172791.69
 STEP:  35 TIME =     0.23 SECS, INTEGRAL =      8.21 TIME LEFT: 172791.46
 STEP:  36 TIME =     0.23 SECS, INTEGRAL =      8.44 TIME LEFT: 172791.23
 STEP:  37 TIME =     0.23 SECS, INTEGRAL =      8.67 TIME LEFT: 172791.00
 STEP:  38 TIME =     0.23 SECS, INTEGRAL =      8.91 TIME LEFT: 172790.77
 STEP:  39 TIME =     0.23 SECS, INTEGRAL =      9.14 TIME LEFT: 172790.54
 STEP:  40 TIME =     0.24 SECS, INTEGRAL =      9.38 TIME LEFT: 172790.30
 STEP:  41 TIME =     0.23 SECS, INTEGRAL =      9.61 TIME LEFT: 172790.07
 STEP:  42 TIME =     0.24 SECS, INTEGRAL =      9.84 TIME LEFT: 172789.83
 STEP:  43 TIME =     0.23 SECS, INTEGRAL =     10.07 TIME LEFT: 172789.60
 STEP:  44 TIME =     0.23 SECS, INTEGRAL =     10.30 TIME LEFT: 172789.37
 STEP:  45 TIME =     0.23 SECS, INTEGRAL =     10.53 TIME LEFT: 172789.15
 STEP:  46 TIME =     0.23 SECS, INTEGRAL =     10.76 TIME LEFT: 172788.92
 STEP:  47 TIME =     0.23 SECS, INTEGRAL =     10.98 TIME LEFT: 172788.69
 STEP:  48 TIME =     0.23 SECS, INTEGRAL =     11.21 TIME LEFT: 172788.46
 STEP:  49 TIME =     0.22 SECS, INTEGRAL =     11.43 TIME LEFT: 172788.24
 STEP:  50 TIME =     0.22 SECS, INTEGRAL =     11.65 TIME LEFT: 172788.02
 STEP:  51 TIME =     0.22 SECS, INTEGRAL =     11.87 TIME LEFT: 172787.80
 STEP:  52 TIME =     0.22 SECS, INTEGRAL =     12.09 TIME LEFT: 172787.58
 STEP:  53 TIME =     0.22 SECS, INTEGRAL =     12.31 TIME LEFT: 172787.37
 STEP:  54 TIME =     0.22 SECS, INTEGRAL =     12.52 TIME LEFT: 172787.15
 STEP:  55 TIME =     0.22 SECS, INTEGRAL =     12.75 TIME LEFT: 172786.92
 STEP:  56 TIME =     0.22 SECS, INTEGRAL =     12.97 TIME LEFT: 172786.71
 STEP:  57 TIME =     0.22 SECS, INTEGRAL =     13.18 TIME LEFT: 172786.49
 STEP:  58 TIME =     0.22 SECS, INTEGRAL =     13.41 TIME LEFT: 172786.27
 STEP:  59 TIME =     0.22 SECS, INTEGRAL =     13.63 TIME LEFT: 172786.04
 STEP:  60 TIME =     0.22 SECS, INTEGRAL =     13.85 TIME LEFT: 172785.83
 STEP:  61 TIME =     0.22 SECS, INTEGRAL =     14.07 TIME LEFT: 172785.60
 STEP:  62 TIME =     0.22 SECS, INTEGRAL =     14.29 TIME LEFT: 172785.39
 STEP:  63 TIME =     0.22 SECS, INTEGRAL =     14.50 TIME LEFT: 172785.17
 STEP:  64 TIME =     0.22 SECS, INTEGRAL =     14.73 TIME LEFT: 172784.95
 STEP:  65 TIME =     0.22 SECS, INTEGRAL =     14.95 TIME LEFT: 172784.72
 STEP:  66 TIME =     0.22 SECS, INTEGRAL =     15.17 TIME LEFT: 172784.51
 STEP:  67 TIME =     0.22 SECS, INTEGRAL =     15.38 TIME LEFT: 172784.29
 STEP:  68 TIME =     0.22 SECS, INTEGRAL =     15.60 TIME LEFT: 172784.07
 STEP:  69 TIME =     0.22 SECS, INTEGRAL =     15.82 TIME LEFT: 172783.86
 STEP:  70 TIME =     0.22 SECS, INTEGRAL =     16.04 TIME LEFT: 172783.64
 STEP:  71 TIME =     0.22 SECS, INTEGRAL =     16.25 TIME LEFT: 172783.42
 STEP:  72 TIME =     0.22 SECS, INTEGRAL =     16.47 TIME LEFT: 172783.20
 STEP:  73 TIME =     0.22 SECS, INTEGRAL =     16.69 TIME LEFT: 172782.98
 STEP:  74 TIME =     0.22 SECS, INTEGRAL =     16.91 TIME LEFT: 172782.76
 STEP:  75 TIME =     0.23 SECS, INTEGRAL =     17.14 TIME LEFT: 172782.53
 STEP:  76 TIME =     0.24 SECS, INTEGRAL =     17.38 TIME LEFT: 172782.29
 STEP:  77 TIME =     0.24 SECS, INTEGRAL =     17.62 TIME LEFT: 172782.05
 STEP:  78 TIME =     0.24 SECS, INTEGRAL =     17.87 TIME LEFT: 172781.81
 STEP:  79 TIME =     0.24 SECS, INTEGRAL =     18.11 TIME LEFT: 172781.57
 STEP:  80 TIME =     0.24 SECS, INTEGRAL =     18.35 TIME LEFT: 172781.33
 STEP:  81 TIME =     0.24 SECS, INTEGRAL =     18.59 TIME LEFT: 172781.08
 STEP:  82 TIME =     0.23 SECS, INTEGRAL =     18.82 TIME LEFT: 172780.86
 STEP:  83 TIME =     0.23 SECS, INTEGRAL =     19.04 TIME LEFT: 172780.63
 STEP:  84 TIME =     0.25 SECS, INTEGRAL =     19.30 TIME LEFT: 172780.38
 STEP:  85 TIME =     0.23 SECS, INTEGRAL =     19.52 TIME LEFT: 172780.15
 STEP:  86 TIME =     0.23 SECS, INTEGRAL =     19.75 TIME LEFT: 172779.92
 STEP:  87 TIME =     0.24 SECS, INTEGRAL =     19.99 TIME LEFT: 172779.68
 STEP:  88 TIME =     0.23 SECS, INTEGRAL =     20.22 TIME LEFT: 172779.45
 STEP:  89 TIME =     0.22 SECS, INTEGRAL =     20.44 TIME LEFT: 172779.23
 STEP:  90 TIME =     0.22 SECS, INTEGRAL =     20.66 TIME LEFT: 172779.02
 STEP:  91 TIME =     0.23 SECS, INTEGRAL =     20.89 TIME LEFT: 172778.79
 STEP:  92 TIME =     0.24 SECS, INTEGRAL =     21.12 TIME LEFT: 172778.55
 STEP:  93 TIME =     0.23 SECS, INTEGRAL =     21.35 TIME LEFT: 172778.32
 STEP:  94 TIME =     0.22 SECS, INTEGRAL =     21.58 TIME LEFT: 172778.09
 STEP:  95 TIME =     0.23 SECS, INTEGRAL =     21.81 TIME LEFT: 172777.86
 STEP:  96 TIME =     0.25 SECS, INTEGRAL =     22.06 TIME LEFT: 172777.61
 STEP:  97 TIME =     0.22 SECS, INTEGRAL =     22.29 TIME LEFT: 172777.39
 STEP:  98 TIME =     0.22 SECS, INTEGRAL =     22.51 TIME LEFT: 172777.16
 STEP:  99 TIME =     0.22 SECS, INTEGRAL =     22.73 TIME LEFT: 172776.95
 STEP: 100 TIME =     0.22 SECS, INTEGRAL =     22.95 TIME LEFT: 172776.73
 STEP: 101 TIME =     0.22 SECS, INTEGRAL =     23.17 TIME LEFT: 172776.50
 STEP: 102 TIME =     0.22 SECS, INTEGRAL =     23.39 TIME LEFT: 172776.28
 STEP: 103 TIME =     0.23 SECS, INTEGRAL =     23.62 TIME LEFT: 172776.05
 STEP: 104 TIME =     0.22 SECS, INTEGRAL =     23.85 TIME LEFT: 172775.83
 STEP: 105 TIME =     0.23 SECS, INTEGRAL =     24.08 TIME LEFT: 172775.59
 STEP: 106 TIME =     0.23 SECS, INTEGRAL =     24.31 TIME LEFT: 172775.36
 STEP: 107 TIME =     0.23 SECS, INTEGRAL =     24.54 TIME LEFT: 172775.14
 STEP: 108 TIME =     0.22 SECS, INTEGRAL =     24.76 TIME LEFT: 172774.91
 STEP: 109 TIME =     0.22 SECS, INTEGRAL =     24.99 TIME LEFT: 172774.69
 STEP: 110 TIME =     0.23 SECS, INTEGRAL =     25.21 TIME LEFT: 172774.46
 STEP: 111 TIME =     0.24 SECS, INTEGRAL =     25.45 TIME LEFT: 172774.22
 STEP: 112 TIME =     0.23 SECS, INTEGRAL =     25.68 TIME LEFT: 172774.00
 STEP: 113 TIME =     0.22 SECS, INTEGRAL =     25.90 TIME LEFT: 172773.77
 STEP: 114 TIME =     0.22 SECS, INTEGRAL =     26.12 TIME LEFT: 172773.55
 STEP: 115 TIME =     0.23 SECS, INTEGRAL =     26.35 TIME LEFT: 172773.32
 STEP: 116 TIME =     0.22 SECS, INTEGRAL =     26.57 TIME LEFT: 172773.10
 STEP: 117 TIME =     0.24 SECS, INTEGRAL =     26.81 TIME LEFT: 172772.86
 STEP: 118 TIME =     0.22 SECS, INTEGRAL =     27.03 TIME LEFT: 172772.64
 STEP: 119 TIME =     0.22 SECS, INTEGRAL =     27.25 TIME LEFT: 172772.42
 STEP: 120 TIME =     0.22 SECS, INTEGRAL =     27.47 TIME LEFT: 172772.21
 STEP: 121 TIME =     0.22 SECS, INTEGRAL =     27.68 TIME LEFT: 172771.99
 STEP: 122 TIME =     0.22 SECS, INTEGRAL =     27.90 TIME LEFT: 172771.77
 STEP: 123 TIME =     0.22 SECS, INTEGRAL =     28.13 TIME LEFT: 172771.55
 STEP: 124 TIME =     0.21 SECS, INTEGRAL =     28.34 TIME LEFT: 172771.33
 STEP: 125 TIME =     0.22 SECS, INTEGRAL =     28.56 TIME LEFT: 172771.11
 STEP: 126 TIME =     0.22 SECS, INTEGRAL =     28.77 TIME LEFT: 172770.90
 STEP: 127 TIME =     0.23 SECS, INTEGRAL =     29.00 TIME LEFT: 172770.67
 STEP: 128 TIME =     0.23 SECS, INTEGRAL =     29.23 TIME LEFT: 172770.45
 STEP: 129 TIME =     0.23 SECS, INTEGRAL =     29.45 TIME LEFT: 172770.22
 STEP: 130 TIME =     0.22 SECS, INTEGRAL =     29.67 TIME LEFT: 172770.00
 STEP: 131 TIME =     0.22 SECS, INTEGRAL =     29.89 TIME LEFT: 172769.78
 STEP: 132 TIME =     0.22 SECS, INTEGRAL =     30.10 TIME LEFT: 172769.57
 STEP: 133 TIME =     0.22 SECS, INTEGRAL =     30.32 TIME LEFT: 172769.35
 STEP: 134 TIME =     0.22 SECS, INTEGRAL =     30.54 TIME LEFT: 172769.14
 STEP: 135 TIME =     0.21 SECS, INTEGRAL =     30.75 TIME LEFT: 172768.92
 STEP: 136 TIME =     0.21 SECS, INTEGRAL =     30.97 TIME LEFT: 172768.71
 STEP: 137 TIME =     0.22 SECS, INTEGRAL =     31.19 TIME LEFT: 172768.49
 STEP: 138 TIME =     0.22 SECS, INTEGRAL =     31.41 TIME LEFT: 172768.27
 STEP: 139 TIME =     0.23 SECS, INTEGRAL =     31.64 TIME LEFT: 172768.03
 STEP: 140 TIME =     0.26 SECS, INTEGRAL =     31.90 TIME LEFT: 172767.77
 STEP: 141 TIME =     0.23 SECS, INTEGRAL =     32.13 TIME LEFT: 172767.55
 STEP: 142 TIME =     0.22 SECS, INTEGRAL =     32.35 TIME LEFT: 172767.33
 STEP: 143 TIME =     0.22 SECS, INTEGRAL =     32.56 TIME LEFT: 172767.11
 STEP: 144 TIME =     0.22 SECS, INTEGRAL =     32.78 TIME LEFT: 172766.89
 STEP: 145 TIME =     0.22 SECS, INTEGRAL =     33.00 TIME LEFT: 172766.67
 STEP: 146 TIME =     0.22 SECS, INTEGRAL =     33.22 TIME LEFT: 172766.46
 STEP: 147 TIME =     0.21 SECS, INTEGRAL =     33.43 TIME LEFT: 172766.24
 STEP: 148 TIME =     0.22 SECS, INTEGRAL =     33.65 TIME LEFT: 172766.02
 STEP: 149 TIME =     0.22 SECS, INTEGRAL =     33.87 TIME LEFT: 172765.80
 STEP: 150 TIME =     0.22 SECS, INTEGRAL =     34.09 TIME LEFT: 172765.59
 STEP: 151 TIME =     0.22 SECS, INTEGRAL =     34.31 TIME LEFT: 172765.36
 STEP: 152 TIME =     0.23 SECS, INTEGRAL =     34.54 TIME LEFT: 172765.14
 STEP: 153 TIME =     0.22 SECS, INTEGRAL =     34.76 TIME LEFT: 172764.91
 STEP: 154 TIME =     0.22 SECS, INTEGRAL =     34.98 TIME LEFT: 172764.69
 STEP: 155 TIME =     0.24 SECS, INTEGRAL =     35.23 TIME LEFT: 172764.45
 STEP: 156 TIME =     0.26 SECS, INTEGRAL =     35.49 TIME LEFT: 172764.19
 STEP: 157 TIME =     0.23 SECS, INTEGRAL =     35.71 TIME LEFT: 172763.96
 STEP: 158 TIME =     0.22 SECS, INTEGRAL =     35.93 TIME LEFT: 172763.74
 STEP: 159 TIME =     0.22 SECS, INTEGRAL =     36.15 TIME LEFT: 172763.53
 STEP: 160 TIME =     0.21 SECS, INTEGRAL =     36.36 TIME LEFT: 172763.31
 STEP: 161 TIME =     0.21 SECS, INTEGRAL =     36.58 TIME LEFT: 172763.10
 STEP: 162 TIME =     0.24 SECS, INTEGRAL =     36.82 TIME LEFT: 172762.85

(To convert to Hartree/Bohr^2, multiply by (10^(-21) x N x a0^2)/(4.184 x 627.51) = 0.0642)


           FORCE MATRIX IN MILLIDYNES/ANGSTROM


                  C  1       C  2       C  3       C  4       C  5       C  6
 ------------------------------------------------------------------------------
     C    1  13.210389
     C    2   2.704458  11.904989
     C    3   0.823971   3.832026  15.798596
     C    4   0.118265   0.863563   7.500714  15.945898
     C    5   0.020451   0.110720   0.948658   3.510546  12.894947
     C    6   0.017439   0.029367   0.385045   0.818354   3.600861  16.098873
     C    7   0.035228   0.140828   1.661295   0.404170   0.928072   7.767537
     C    8   0.010871   0.039067   0.138530   0.030786   0.115193   0.836316
     C    9   0.004044   0.011356   0.038176   0.019904   0.021074   0.111012
     C   10   0.005524   0.010255   0.050354   0.044571   0.046508   0.764793
     C   11   0.020525   0.039694   0.353380   0.181022   0.692430   3.543993
     O   12   0.009176   0.016905   0.131933   0.071221   0.063703   1.675482
     O   13   0.071693   0.983725   3.665432   1.620640   0.265691   1.551344
     C   14   0.800851   0.206997   1.906601   3.651070   0.716022   0.173148
     O   15   0.121744   0.106629   0.469218   1.777542   0.084142   0.077542
     C   16   2.839678   0.725451   0.090109   0.757466   0.047213   0.038229
     H   17   0.589345   3.263640   0.721614   0.066523   0.015735   0.011409
     H   18   0.590037   3.194260   0.729874   0.057502   0.018308   0.012317
     H   19   0.004503   0.013621   0.045211   0.644412   3.127933   0.644759
     H   20   0.001957   0.004933   0.020165   0.011656   0.020335   0.053250
     H   21   0.002543   0.006396   0.022778   0.012188   0.015906   0.058186
     H   22   0.001097   0.002583   0.012574   0.007842   0.005202   0.044658
     H   23   0.001343   0.002404   0.014245   0.009369   0.008315   0.068484
     H   24   0.592860   0.021011   0.033745   0.050386   0.005389   0.006174
     H   25   0.603992   0.066013   0.033297   0.052144   0.007744   0.005994
     C   26   0.010659   0.027695   0.114466   0.781319   3.438416   0.737902
     C   27   0.009555   0.010863   0.026487   0.068618   0.746024   0.062445
     C   28   0.002882   0.007524   0.017806   0.023002   0.067090   0.027839
     C   29   0.007205   0.017923   0.049595   0.064255   0.099816   0.050176
     H   30   0.000870   0.002440   0.006862   0.007992   0.012149   0.007205
     C   31   0.007229   0.017426   0.050869   0.061790   0.136133   0.047058
     C   32   0.006523   0.017832   0.050544   0.058995   0.792959   0.046812
     H   33   0.001298   0.002652   0.006789   0.007664   0.013415   0.007244
     H   34   0.000949   0.001935   0.005036   0.010289   0.035109   0.027913
     O   35   0.013081   0.011224   0.036881   0.072568   0.120401   0.037671
     H   36   0.022069   0.021886   0.076958   0.099900   0.114445   0.026538
     O   37   0.005475   0.013270   0.036965   0.049078   0.077531   0.036734
     H   38   0.001140   0.002878   0.007681   0.010163   0.015995   0.008164
     C   39   3.242413   0.704336   0.055912   0.031943   0.008070   0.011585
     H   40   0.616525   0.015068   0.007561   0.005222   0.001203   0.001644
     H   41   0.621644   0.042276   0.012844   0.005807   0.001110   0.001481
     H   42   0.610051   0.016834   0.006085   0.005112   0.001514   0.001986


                  C  1       C  2       C  3       C  4       C  5       C  6
 ------------------------------------------------------------------------------
     C   43   3.205689   0.732362   0.058468   0.071977   0.011977   0.012677
     H   44   0.622223   0.015451   0.015597   0.008202   0.002322   0.002605
     H   45   0.611237   0.008571   0.046984   0.014761   0.004096   0.004710
     H   46   0.623821   0.046863   0.011058   0.007853   0.001729   0.002162
     C   47   0.002455   0.005745   0.022108   0.011931   0.008112   0.029959
     H   48   0.000405   0.000901   0.003258   0.001922   0.001279   0.004630
     H   49   0.000548   0.000741   0.002498   0.001580   0.001224   0.004982
     H   50   0.000403   0.001014   0.003885   0.002145   0.001120   0.004903
     C   51   0.002038   0.004645   0.019370   0.012089   0.011047   0.043864
     H   52   0.001063   0.001455   0.005288   0.003518   0.003078   0.007854
     H   53   0.000547   0.000851   0.002925   0.001891   0.001217   0.006351
     H   54   0.000638   0.001121   0.003641   0.002349   0.001750   0.006156


                  C  7       C  8       C  9       C 10       C 11       O 12
 ------------------------------------------------------------------------------
     C    7  15.931445
     C    8   3.843444  11.910489
     C    9   0.816610   2.688418  13.141494
     C   10   0.080332   0.738637   2.838811  11.833197
     C   11   1.789485   0.185958   0.830715   3.265454  16.265877
     O   12   0.388886   0.089441   0.117668   1.329503  10.381642  12.410934
     O   13   3.575764   0.975164   0.075942   0.089664   0.614434   0.235492
     C   14   0.354703   0.038281   0.021674   0.038335   0.176142   0.071528
     O   15   0.147151   0.018013   0.010387   0.018018   0.079485   0.032641
     C   16   0.041679   0.008680   0.005007   0.009523   0.034298   0.014617
     H   17   0.021168   0.006504   0.002588   0.003619   0.013021   0.005841
     H   18   0.022181   0.004690   0.002186   0.003555   0.014106   0.006276
     H   19   0.043909   0.016992   0.005216   0.009094   0.051903   0.017656
     H   20   0.733422   3.208501   0.592752   0.025105   0.065932   0.030439
     H   21   0.707764   3.272571   0.590689   0.046284   0.054768   0.025296
     H   22   0.043518   0.022861   0.611041   3.247455   0.723734   0.073796
     H   23   0.041736   0.044160   0.612259   3.301881   0.702140   0.043483
     H   24   0.009958   0.001846   0.001256   0.001999   0.006703   0.003009
     H   25   0.009340   0.001841   0.000982   0.001863   0.006577   0.002983
     C   26   0.083044   0.027885   0.007927   0.011636   0.035489   0.040974
     C   27   0.046359   0.015438   0.006999   0.012782   0.038346   0.038983
     C   28   0.018223   0.006915   0.003676   0.006303   0.015906   0.009940
     C   29   0.038951   0.015650   0.007508   0.014145   0.043625   0.023820
     H   30   0.005349   0.002021   0.001151   0.002111   0.005488   0.003211
     C   31   0.045848   0.015555   0.008435   0.016598   0.043767   0.024144
     C   32   0.046862   0.015448   0.007739   0.014644   0.043561   0.021288
     H   33   0.006000   0.002489   0.001344   0.002200   0.006769   0.003732
     H   34   0.029753   0.008395   0.005354   0.009450   0.018587   0.007861
     O   35   0.035562   0.010821   0.004857   0.009934   0.029672   0.021376
     H   36   0.028633   0.004838   0.002630   0.005203   0.017890   0.016610
     O   37   0.025467   0.011427   0.005489   0.010856   0.030483   0.016759
     H   38   0.005742   0.002665   0.001349   0.002774   0.006836   0.003763
     C   39   0.021569   0.005880   0.002772   0.003700   0.013449   0.005880
     H   40   0.003380   0.001005   0.000626   0.000634   0.002068   0.001065
     H   41   0.002365   0.000698   0.000365   0.000522   0.001828   0.000893
     H   42   0.003155   0.001046   0.000850   0.000869   0.002805   0.001464
     C   43   0.019824   0.004794   0.002565   0.004057   0.014488   0.006250
     H   44   0.004147   0.001170   0.000850   0.001008   0.003114   0.001455
     H   45   0.007096   0.002001   0.001441   0.001489   0.005355   0.002370
     H   46   0.003069   0.000976   0.000612   0.000777   0.002457   0.001089
     C   47   0.054290   0.701522   3.241483   0.725215   0.081644   0.058381
     H   48   0.006727   0.016069   0.615501   0.044931   0.014942   0.006871
     H   49   0.012007   0.042167   0.620617   0.012156   0.015184   0.010598
     H   50   0.006917   0.016668   0.610918   0.013594   0.014629   0.011449
     C   51   0.048928   0.734538   3.162129   0.732594   0.129819   0.083814
     H   52   0.036010   0.009565   0.610321   0.010173   0.045813   0.013178


                  C  7       C  8       C  9       C 10       C 11       O 12
 ------------------------------------------------------------------------------
     H   53   0.010211   0.046631   0.621542   0.016304   0.029870   0.016628
     H   54   0.013775   0.013407   0.621531   0.045789   0.014681   0.008628


                  O 13       C 14       O 15       C 16       H 17       H 18
 ------------------------------------------------------------------------------
     O   13   9.017796
     C   14   0.648839  15.951290
     O   15   0.269967   9.544536  11.552951
     C   16   0.078963   3.344270   1.330218  11.847793
     H   17   0.024723   0.058707   0.029099   0.046187   4.129630
     H   18   0.035672   0.064918   0.034208   0.021234   0.411947   4.073335
     H   19   0.013744   0.049037   0.019512   0.008063   0.002164   0.002669
     H   20   0.033710   0.012459   0.006067   0.002978   0.001273   0.001339
     H   21   0.023282   0.013202   0.006384   0.003179   0.001565   0.001316
     H   22   0.023469   0.007982   0.003853   0.001938   0.000831   0.000843
     H   23   0.027208   0.009183   0.004453   0.002120   0.000862   0.000855
     H   24   0.019340   0.745789   0.065881   3.258778   0.004103   0.013219
     H   25   0.018847   0.718182   0.070251   3.263491   0.008465   0.012416
     C   26   0.090993   0.052593   0.059271   0.015313   0.005281   0.007087
     C   27   0.031487   0.141752   0.186132   0.021296   0.003325   0.003122
     C   28   0.010774   0.029783   0.047541   0.007731   0.002254   0.001906
     C   29   0.026987   0.044006   0.032199   0.013347   0.003967   0.004581
     H   30   0.003381   0.006100   0.009193   0.002262   0.000739   0.000641
     C   31   0.030777   0.041979   0.026374   0.013165   0.003717   0.004395
     C   32   0.026735   0.040337   0.027561   0.012873   0.003817   0.004609
     H   33   0.004518   0.005855   0.005214   0.002213   0.000591   0.000568
     H   34   0.015922   0.004767   0.003984   0.001477   0.000548   0.000539
     O   35   0.032317   0.198947   0.440410   0.036870   0.002787   0.003504
     H   36   0.050393   0.412879   0.384890   0.071984   0.005475   0.006435
     O   37   0.016634   0.028819   0.020536   0.010092   0.002911   0.003227
[...]
 EFF. MASS   1.4609

 VIBRATION  143  143A       ATOM PAIR        ENERGY CONTRIBUTION    RADIAL
 FREQ.      2684.44        C 47 --  H 48          +56.1% ( 77.2%)    99.2%
 T-DIPOLE    0.9514        C 47 --  H 49          +28.7% ( 55.2%)    93.8%
 TRAVEL      0.1312        C 47 --  H 50           +6.2% ( 25.7%)    65.1%
 RED. MASS   0.4192        C 51 --  H 53           +4.9% ( 22.8%)    99.0%
 EFF. MASS   1.4599

 VIBRATION  144  144A       ATOM PAIR        ENERGY CONTRIBUTION    RADIAL
 FREQ.      2685.79        C 51 --  H 52          +57.2% ( 78.0%)    99.4%
 T-DIPOLE    0.8635        C 51 --  H 53          +20.1% ( 46.2%)    89.8%
 TRAVEL      0.1308        C 51 --  H 54          +11.7% ( 35.3%)    81.1%
 RED. MASS   0.4021        C 47 --  H 50           +5.2% ( 23.5%)    98.0%
 EFF. MASS   1.4679

 VIBRATION  145  145A       ATOM PAIR        ENERGY CONTRIBUTION    RADIAL
 FREQ.      2686.33        C 43 --  H 45          +60.1% ( 80.0%)    99.3%
 T-DIPOLE    0.8941        C 43 --  H 46          +23.6% ( 50.1%)    91.3%
 TRAVEL      0.1308        C 43 --  H 44          +10.9% ( 34.0%)    78.1%
 RED. MASS   0.4477        C 39 --  H 42           +2.9% ( 17.6%)    99.5%
 EFF. MASS   1.4674

 VIBRATION  146  146A       ATOM PAIR        ENERGY CONTRIBUTION    RADIAL
 FREQ.      2719.68        C  2 --  H 17          +51.3% ( 70.3%)    97.8%
 T-DIPOLE    0.9042        C  2 --  H 18          +34.0% ( 57.3%)    95.1%
 TRAVEL      0.1405        C  8 --  H 21           +5.9% ( 23.8%)    97.8%
 RED. MASS   0.3761        C  8 --  H 20           +4.0% ( 19.7%)    95.3%
 EFF. MASS   1.2568

 VIBRATION  147  147A       ATOM PAIR        ENERGY CONTRIBUTION    RADIAL
 FREQ.      2721.55        C  8 --  H 21          +46.4% ( 66.9%)    97.8%
 T-DIPOLE    1.7667        C  8 --  H 20          +31.8% ( 55.4%)    95.4%
 TRAVEL      0.1406        C 10 --  H 23           +6.1% ( 24.3%)    97.7%
 RED. MASS   0.3198        C  2 --  H 17           +5.5% ( 23.0%)    97.8%
 EFF. MASS   1.2537

 VIBRATION  148  148A       ATOM PAIR        ENERGY CONTRIBUTION    RADIAL
 FREQ.      2731.50        C 10 --  H 23          +50.3% ( 69.7%)    97.5%
 T-DIPOLE    1.1638        C 10 --  H 22          +36.1% ( 59.0%)    95.4%
 TRAVEL      0.1399        C  8 --  H 21           +5.7% ( 23.5%)    97.5%
 RED. MASS   0.3811        C  8 --  H 20           +4.2% ( 20.1%)    94.7%
 EFF. MASS   1.2619

 VIBRATION  149  149A       ATOM PAIR        ENERGY CONTRIBUTION    RADIAL
 FREQ.      2735.07        C 16 --  H 24          +52.7% ( 71.3%)    97.1%
 T-DIPOLE    0.8816        C 16 --  H 25          +40.3% ( 62.4%)    95.8%
 TRAVEL      0.1399        C  2 --  H 17           +2.0% ( 14.0%)    97.1%
 RED. MASS   0.4331        C  2 --  H 18           +1.7% ( 12.8%)    95.5%
 EFF. MASS   1.2601

 VIBRATION  150  150A       ATOM PAIR        ENERGY CONTRIBUTION    RADIAL
 FREQ.      2737.41        C 32 --  H 34          +81.5% ( 91.3%)   100.0%
 T-DIPOLE    0.6925        C 31 --  H 33          +16.0% ( 40.4%)   100.0%
 TRAVEL      0.1334        C 31 --  C 32           +1.0% (  9.9%)     4.0%
 RED. MASS   0.6705        C 26 --  C 32           +0.9% (  9.5%)    17.8%
 EFF. MASS   1.3835

 VIBRATION  151  151A       ATOM PAIR        ENERGY CONTRIBUTION    RADIAL
 FREQ.      2747.88        C 31 --  H 33          +50.0% ( 71.4%)   100.0%
 T-DIPOLE    1.9634        C 28 --  H 30          +40.8% ( 64.5%)   100.0%
 TRAVEL      0.1333        C 32 --  H 34           +7.1% ( 26.9%)    99.7%
 RED. MASS   0.4089        C 31 --  C 32           +0.7% (  8.3%)    66.1%
 EFF. MASS   1.3811

 VIBRATION  152  152A       ATOM PAIR        ENERGY CONTRIBUTION    RADIAL
 FREQ.      2756.53        C 28 --  H 30          +56.6% ( 75.9%)   100.0%
 T-DIPOLE    0.7953        C 31 --  H 33          +31.8% ( 56.9%)   100.0%
 TRAVEL      0.1311        C 32 --  H 34           +9.1% ( 30.4%)    99.9%
 RED. MASS   0.4186        C 28 --  C 29           +0.7% (  8.2%)    29.0%
 EFF. MASS   1.4227

 VIBRATION  153  153A       ATOM PAIR        ENERGY CONTRIBUTION    RADIAL
 FREQ.      2786.24        C 39 --  H 40          +18.3% ( 41.1%)    96.0%
 T-DIPOLE    0.6241        C 39 --  H 41          +17.2% ( 39.9%)    95.7%
 TRAVEL      0.1458        C 39 --  H 42          +17.2% ( 39.8%)    95.4%
 RED. MASS   0.1638        C 43 --  H 45          +16.9% ( 39.5%)    96.1%
 EFF. MASS   1.1378        C 43 --  H 46          +15.2% ( 37.4%)    95.6%
                           C 43 --  H 44          +14.9% ( 37.1%)    95.6%

 VIBRATION  154  154A       ATOM PAIR        ENERGY CONTRIBUTION    RADIAL
 FREQ.      2787.50        C 47 --  H 48          +17.6% ( 40.3%)    95.8%
 T-DIPOLE    0.6025        C 47 --  H 50          +17.3% ( 39.9%)    95.5%
 TRAVEL      0.1458        C 51 --  H 52          +17.0% ( 39.6%)    96.0%
 RED. MASS   0.1634        C 47 --  H 49          +16.9% ( 39.5%)    95.6%
 EFF. MASS   1.1383        C 51 --  H 53          +15.9% ( 38.3%)    95.7%
                           C 51 --  H 54          +15.1% ( 37.3%)    95.5%

 VIBRATION  155  155A       ATOM PAIR        ENERGY CONTRIBUTION    RADIAL
 FREQ.      2790.44        C 43 --  H 45          +17.9% ( 40.6%)    95.7%
 T-DIPOLE    0.5966        C 43 --  H 46          +17.5% ( 40.2%)    95.4%
 TRAVEL      0.1451        C 43 --  H 44          +17.0% ( 39.6%)    95.2%
 RED. MASS   0.1617        C 39 --  H 40          +16.5% ( 39.0%)    95.7%
 EFF. MASS   1.1476        C 39 --  H 41          +15.4% ( 37.7%)    95.2%
                           C 39 --  H 42          +14.7% ( 36.8%)    95.2%

 VIBRATION  156  156A       ATOM PAIR        ENERGY CONTRIBUTION    RADIAL
 FREQ.      2791.58        C 51 --  H 52          +17.5% ( 40.2%)    95.7%
 T-DIPOLE    0.5380        C 51 --  H 53          +17.2% ( 39.9%)    95.4%
 TRAVEL      0.1450        C 47 --  H 48          +16.6% ( 39.2%)    95.6%
 RED. MASS   0.1610        C 51 --  H 54          +16.5% ( 39.0%)    95.1%
 EFF. MASS   1.1483        C 47 --  H 49          +15.6% ( 37.9%)    95.1%
                           C 47 --  H 50          +15.4% ( 37.7%)    95.2%

 SYMMETRY NUMBER FOR POINT-GROUP C1  =  1


          SYSTEM IS A GROUND STATE


                                                                                                                                                                                                                                                 
 SJ000002349-1_T001S001I001C02: Free energy calculation                                                                                                                                                                                          


          MOLECULE IS NOT LINEAR

          THERE ARE  156 GENUINE VIBRATIONS IN THIS SYSTEM
          THIS THERMODYNAMICS CALCULATION IS LIMITED TO
          MOLECULES WHICH HAVE NO INTERNAL ROTATIONS




                    CALCULATED THERMODYNAMIC PROPERTIES
                                          *
   TEMP. (K)   PARTITION FUNCTION   H.O.F.    ENTHALPY  HEAT CAPACITY ENTROPY
                                   KCAL/MOL   CAL/MOLE    CAL/K/MOL  CAL/K/MOL


 298.00  VIB.     0.1431D+11                 14876.8780    99.6336    96.3911
         ROT.     0.1455D+08                   888.2813     2.9808    35.7556
         INT.     0.2081D+18                 15765.1593   102.6144   132.1467
         TRA.     0.7231D+28                  1480.4688     4.9680    43.7144
         TOT.                     -231.830   17245.6281   107.5824   175.8611

 200.00  VIB.     0.3660D+07                  6718.1321    67.0456    63.6231
         ROT.     0.7998D+07                   596.1620     2.9808    34.5669
         INT.     0.2927D+14                  7314.2941    70.0264    98.1901
         TRA.     0.3976D+28                   993.6033     4.9680    41.7332
         TOT.                     -240.768    8307.8973    74.9944   139.9233

 210.00  VIB.     0.8521D+07                  7404.8918    70.3090    66.9732
         ROT.     0.8606D+07                   625.9700     2.9808    34.7124
         INT.     0.7332D+14                  8030.8618    73.2898   101.6856
         TRA.     0.4278D+28                  1043.2834     4.9680    41.9756
         TOT.                     -240.002    9074.1452    78.2578   143.6612

 220.00  VIB.     0.1983D+08                  8124.3689    73.5895    70.3196
         ROT.     0.9228D+07                   655.7781     2.9808    34.8510
         INT.     0.1830D+15                  8780.1471    76.5703   105.1707
         TRA.     0.4587D+28                  1092.9636     4.9680    42.2067
         TOT.                     -239.203    9873.1106    81.5383   147.3774

 230.00  VIB.     0.4615D+08                  8876.7431    76.8884    73.6635
         ROT.     0.9864D+07                   685.5862     2.9808    34.9835
         INT.     0.4552D+15                  9562.3293    79.8692   108.6471
         TRA.     0.4903D+28                  1142.6437     4.9680    42.4276
         TOT.                     -238.371   10704.9731    84.8373   151.0746

 240.00  VIB.     0.1074D+09                  9662.1975    80.2053    77.0059
         ROT.     0.1051D+08                   715.3943     2.9808    35.1104
         INT.     0.1129D+16                 10377.5919    83.1861   112.1163
         TRA.     0.5226D+28                  1192.3239     4.9680    42.6390
         TOT.                     -237.506   11569.9158    88.1542   154.7553

 250.00  VIB.     0.2497D+09                 10480.9031    83.5382    80.3475
         ROT.     0.1118D+08                   745.2024     2.9808    35.2321
         INT.     0.2791D+16                 11226.1055    86.5190   115.5796
         TRA.     0.5556D+28                  1242.0041     4.9680    42.8418
         TOT.                     -236.608   12468.1096    91.4870   158.4214

 260.00  VIB.     0.5805D+09                 11333.0043    86.8839    83.6891
         ROT.     0.1186D+08                   775.0105     2.9808    35.3490
         INT.     0.6882D+16                 12108.0149    89.8647   119.0381
         TRA.     0.5893D+28                  1291.6842     4.9680    43.0367
         TOT.                     -235.676   13399.6991    94.8327   162.0748

 270.00  VIB.     0.1349D+10                 12218.6089    90.2381    87.0310
         ROT.     0.1255D+08                   804.8186     2.9808    35.4615
         INT.     0.1693D+17                 13023.4276    93.2189   122.4925
         TRA.     0.6236D+28                  1341.3644     4.9680    43.2242
         TOT.                     -234.711   14364.7920    98.1869   165.7167

 280.00  VIB.     0.3136D+10                 13137.7795    93.5962    90.3734
         ROT.     0.1325D+08                   834.6267     2.9808    35.5699
         INT.     0.4155D+17                 13972.4062    96.5770   125.9434
         TRA.     0.6586D+28                  1391.0445     4.9680    43.4048
         TOT.                     -233.712   15363.4508   101.5450   169.3482

 290.00  VIB.     0.7288D+10                 14090.5283    96.9529    93.7164
         ROT.     0.1397D+08                   864.4348     2.9808    35.6745
         INT.     0.1018D+18                 14954.9631    99.9337   129.3909
         TRA.     0.6942D+28                  1440.7247     4.9680    43.5792
         TOT.                     -232.680   16395.6878   104.9017   172.9701

 300.00  VIB.     0.1693D+11                 15076.8144   100.3028    97.0598
         ROT.     0.1469D+08                   894.2429     2.9808    35.7756
         INT.     0.2488D+18                 15971.0573   103.2836   132.8353
         TRA.     0.7304D+28                  1490.4049     4.9680    43.7476
         TOT.                     -231.614   17461.4622   108.2516   176.5829

 310.00  VIB.     0.3934D+11                 16096.5428   103.6404   100.4031
         ROT.     0.1543D+08                   924.0510     2.9808    35.8733
         INT.     0.6072D+18                 17020.5938   106.6212   136.2764
         TRA.     0.7672D+28                  1540.0850     4.9680    43.9105
         TOT.                     -230.515   18560.6788   111.5893   180.1869

 320.00  VIB.     0.9138D+11                 17149.5649   106.9607   103.7461
         ROT.     0.1619D+08                   953.8591     2.9808    35.9679
         INT.     0.1479D+19                 18103.4240   109.9415   139.7140
         TRA.     0.8046D+28                  1589.7652     4.9680    44.0682
         TOT.                     -229.383   19693.1892   114.9095   183.7822

 330.00  VIB.     0.2122D+12                 18235.6811   110.2584   107.0880
         ROT.     0.1695D+08                   983.6672     2.9808    36.0597
         INT.     0.3598D+19                 19219.3483   113.2393   143.1476
         TRA.     0.8426D+28                  1639.4454     4.9680    44.2211
         TOT.                     -228.217   20858.7937   118.2073   187.3687

 340.00  VIB.     0.4929D+12                 19354.6434   113.5291   110.4282
         ROT.     0.1773D+08                  1013.4753     2.9808    36.1486
         INT.     0.8739D+19                 20368.1187   116.5099   146.5768
         TRA.     0.8812D+28                  1689.1255     4.9680    44.3694
         TOT.                     -227.018   22057.2442   121.4780   190.9462

 350.00  VIB.     0.1145D+13                 20506.1592   116.7685   113.7659
         ROT.     0.1852D+08                  1043.2834     2.9808    36.2350
         INT.     0.2119D+20                 21549.4426   119.7493   150.0009
         TRA.     0.9204D+28                  1738.8057     4.9680    44.5134
         TOT.                     -225.787   23288.2483   124.7173   194.5144

 360.00  VIB.     0.2657D+13                 21689.8958   119.9727   117.1004
         ROT.     0.1932D+08                  1073.0915     2.9808    36.3190
         INT.     0.5133D+20                 22762.9873   122.9535   153.4194
         TRA.     0.9601D+28                  1788.4859     4.9680    44.6534
         TOT.                     -224.524   24551.4732   127.9215   198.0728

 370.00  VIB.     0.6168D+13                 22905.4844   123.1384   120.4308
         ROT.     0.2013D+08                  1102.8996     2.9808    36.4007
         INT.     0.1241D+21                 24008.3840   126.1192   156.8315
         TRA.     0.1000D+29                  1838.1660     4.9680    44.7895
         TOT.                     -223.229   25846.5500   131.0872   201.6210

 380.00  VIB.     0.1431D+14                 24152.5247   126.2626   123.7562
         ROT.     0.2095D+08                  1132.7077     2.9808    36.4802
         INT.     0.2998D+21                 25285.2324   129.2434   160.2364
         TRA.     0.1041D+29                  1887.8462     4.9680    44.9220
         TOT.                     -221.903   27173.0786   134.2114   205.1584

 390.00  VIB.     0.3321D+14                 25430.5894   129.3429   127.0759
         ROT.     0.2178D+08                  1162.5158     2.9808    36.5576
         INT.     0.7232D+21                 26593.1052   132.3237   163.6335
         TRA.     0.1083D+29                  1937.5263     4.9680    45.0510
         TOT.                     -220.545   28530.6315   137.2917   208.6845

 400.00  VIB.     0.7701D+14                 26739.2284   132.3771   130.3889
         ROT.     0.2262D+08                  1192.3239     2.9808    36.6331
         INT.     0.1742D+22                 27931.5523   135.3579   167.0220
         TRA.     0.1125D+29                  1987.2065     4.9680    45.1768
         TOT.                     -219.157   29918.7588   140.3260   212.1988

   *: NOTE: HEATS OF FORMATION ARE RELATIVE TO THE
             ELEMENTS IN THEIR STANDARD STATE AT 298K
              (=  Standard Enthalpy of Formation).
            Heat of Formation at T is calculated as [Escf + (HT - H298.15)-.

            Hvib:  Zero-point energy is not included.
                   Wi < 100 cm-1 are not included.
            Hrot = (3/2)RT
            Htra = (3/2)RT + pV = (5/2)RT

            Heat capacity is Cp, not Cv

                 See Section 8.20 in Manual for further information.   (by TH).

           FORCE CONSTANT IN CARTESIAN COORDINATES (Millidynes/A)

    ATOM   CHEMICAL       X               Y               Z
   NUMBER   SYMBOL  FORCE CONSTANT  FORCE CONSTANT  FORCE CONSTANT

      1       C        7.293828        7.846076        7.711435
      2       C        6.912255        7.507889        6.084577
      3       C        8.284092       12.240638        3.473225
      4       C        8.813570       11.743827        3.649440
      5       C        7.893612        7.595886        6.793247
      6       C        9.808459       11.586148        3.065067
      7       C        9.769243       11.036247        3.262701
      8       C        7.665779        6.715016        6.142860
      9       C        7.762191        7.157904        7.793224
     10       C        7.317652        6.954900        6.157762
     11       C        8.403121       11.638153        4.788652
     12       O        2.501257        9.017905        2.360169
     13       O        6.316699        5.522630        1.347989
     14       C        8.517589       11.288484        4.826849
     15       O        3.652402        7.661859        2.021492
     16       C        6.642783        7.474197        6.296003
     17       H        1.118635        1.642235        2.553081
     18       H        1.094655        1.503926        2.631284
     19       H        0.864412        1.638228        3.004570
     20       H        0.784628        0.545549        3.913850
     21       H        1.071275        3.469437        0.794705
     22       H        0.664021        0.821964        3.785285
     23       H        1.806705        2.410222        1.178732
     24       H        0.555507        1.225476        3.515908
     25       H        4.019733        0.732940        0.562264
     26       C        6.723209        5.900473       10.553352
     27       C        6.646397        6.503784       10.328662
     28       C        5.965803        5.785690       10.492568
     29       C        6.795782        6.498507       10.537792
     30       H        2.408650        2.054109        0.861447
     31       C        6.182471        6.104310        9.736786
     32       C        6.064876        5.894758       10.344057
     33       H        0.940726        0.622322        3.807204
     34       H        2.372459        2.079053        1.025869
     35       O        1.894049        2.898277        6.307284
     36       H        0.433383        1.457895        2.019622
     37       O        2.840013        3.269351        4.983971
     38       H        1.783248        1.755985        0.791800
     39       C        6.399770        6.845861        6.426448
     40       H        0.892247        2.353978        2.090947
     41       H        4.099866        0.699939        0.520453
     42       H        0.867266        1.040236        3.427503
     43       C        6.415568        6.448285        6.809965
     44       H        0.874607        1.947615        2.508679
     45       H        0.879237        3.527339        0.955225
     46       H        4.109917        0.517430        0.693781
     47       C        6.833340        6.343428        6.512061
     48       H        1.381142        3.359603        0.597885
     49       H        2.059543        2.156186        1.108357
     50       H        0.692719        0.633286        3.999944
     51       C        6.394417        6.225229        6.915189
     52       H        3.332101        0.520337        1.507949
     53       H        1.628492        2.238810        1.446740
     54       H        1.201655        3.283833        0.839258



 TOTAL CPU TIME:            63.56 SECONDS

 == MOPAC DONE ==
