 *******************************************************************************
 ** Site#:  958            For non-commercial use only         Version 9.015L **
 *******************************************************************************
 ** Cite this work as: MOPAC2009, James J. P. Stewart, Stewart Computational  **
 ** Chemistry, Version 9.015L web: HTTP://OpenMOPAC.net                       **
 *******************************************************************************
 **                                                                           **
 **                                MOPAC2009                                  **
 **                                                                           **
 *******************************************************************************

                            PM6 CALCULATION RESULTS


 *******************************************************************************
 *  CALCULATION DONE:                                Tue Sep  6 21:09:26 2011  *
 *  PM6      - The PM6 Hamiltonian to be used
 *  PDBOUT   - PRINT GEOMETY IN PDB FORMAT
 *  MOZYME   - USE LOCALIZED M.O.s IN SOLVING THE SCF EQUATIONS
 *
 *
 *
 *                 CHARGE ON SYSTEM =     0
 *
 *
 *
 *  EPS= 78.400
 *  RSOLV=  1.300
 *  LET      - OVERRIDE SOME SAFETY CHECKS
 *  XYZ      - CARTESIAN COORDINATE SYSTEM TO BE USED
 *  LBFGS    - USE THE LBFGS GEOMETRY OPTIMIZER
 *  1SCF     - DO 1 SCF AND THEN STOP 
 *  T=       - A TIME OF  0.3E+08 SECONDS REQUESTED
 *  DUMP=N   - RESTART FILE WRITTEN EVERY  4320.000 SECONDS
 *  DDMIN=   - MINIMUM TRUST RADIUS  0.000 ANG/RAD
 *  GNORM=   - EXIT WHEN GRADIENT NORM DROPS BELOW .150    
 *  RELSCF   - DEFAULT SCF CRITERION MULTIPLIED BY   0.100    
 *             (DEFAULT SCFCRT= 0.00010)
 *  MULLIK   - THE MULLIKEN ANALYSIS TO BE PERFORMED
 *******************************************************************************
 PM6 T=31518686 DUMP=4320 XYZ EPS=78.40 RSOLV=1.30 MULLIK LBFGS MOZYME PDBOUT +
 CHARGE=-0 RELSCF=0.1 LET DDMIN=0.0 GNORM=0.15 1SCF
 SJ000001185-1_T001S001I001C01_003: Geometry optimization step

   ATOM   CHEMICAL          X               Y              Z
  NUMBER   SYMBOL      (ANGSTROMS)     (ANGSTROMS)    (ANGSTROMS)
 
     1       N         -6.3050000  *  -26.775000  *   10.389000  *
     2       C         -6.1860000  *  -26.256000  *   11.625000  *
     3       O         -7.1830000  *  -25.987000  *   12.267000  *
     4       C         -4.8560000  *  -26.014000  *   12.204000  *
     5       C         -4.6870000  *  -25.482000  *   13.474000  *
     6       C         -3.4080000  *  -25.270000  *   13.977000  *
     7       C         -2.2940000  *  -25.576000  *   13.249000  *
     8       C         -3.7130000  *  -26.336000  *   11.437000  *
     9       C         -2.4220000  *  -26.118000  *   11.959000  *
    10       C         -1.3050000  *  -26.449000  *   11.171000  *
    11       C         -1.4810000  *  -26.973000  *    9.923000  *
    12       C         -2.7480000  *  -27.193000  *    9.397000  *
    13       C         -3.8750000  *  -26.880000  *   10.142000  *
    14       C         -5.2380000  *  -27.098000  *    9.634000  *
    15       O         -5.4020000  *  -27.564000  *    8.523000  *
    16       H         -5.5490000  *  -25.230000  *   14.072000  *
    17       H         -3.2940000  *  -24.854000  *   14.967000  *
    18       H         -0.3080000  *  -26.289000  *   11.554000  *
    19       H         -0.6130000  *  -27.222000  *    9.330000  *
    20       H         -2.8570000  *  -27.609000  *    8.406000  *
    21       C         -7.5880000  *  -26.993000  *    9.871000  *
    22       C         -8.3310000  *  -25.927000  *    9.383000  *
    23       C         -9.6000000  *  -26.146000  *    8.871000  *
    24       H         -7.9200000  *  -24.928000  *    9.403000  *
    25       C        -10.1280000  *  -27.430000  *    8.851000  *
    26       C         -9.3850000  *  -28.491000  *    9.332000  *
    27       H        -11.1160000  *  -27.601000  *    8.452000  *
    28       C         -8.1200000  *  -28.276000  *    9.844000  *
    29       H         -9.7960000  *  -29.490000  *    9.312000  *
    30       H         -7.5430000  *  -29.107000  *   10.223000  *
    31       O        -10.3300000  *  -25.103000  *    8.394000  *
    32       H        -10.8070000  *  -24.613000  *    9.077000  *
    33       N         -0.9490000  *  -25.336000  *   13.821000  *
    34       O         -0.2060000  *  -24.517000  *   13.308000  *
    35       O         -0.5870000  *  -25.956000  *   14.804000  *
 


          CARTESIAN COORDINATES 

    NO.       ATOM         X         Y         Z

     1         N       -6.3050  -26.7750   10.3890
     2         C       -6.1860  -26.2560   11.6250
     3         O       -7.1830  -25.9870   12.2670
     4         C       -4.8560  -26.0140   12.2040
     5         C       -4.6870  -25.4820   13.4740
     6         C       -3.4080  -25.2700   13.9770
     7         C       -2.2940  -25.5760   13.2490
     8         C       -3.7130  -26.3360   11.4370
     9         C       -2.4220  -26.1180   11.9590
    10         C       -1.3050  -26.4490   11.1710
    11         C       -1.4810  -26.9730    9.9230
    12         C       -2.7480  -27.1930    9.3970
    13         C       -3.8750  -26.8800   10.1420
    14         C       -5.2380  -27.0980    9.6340
    15         O       -5.4020  -27.5640    8.5230
    16         H       -5.5490  -25.2300   14.0720
    17         H       -3.2940  -24.8540   14.9670
    18         H       -0.3080  -26.2890   11.5540
    19         H       -0.6130  -27.2220    9.3300
    20         H       -2.8570  -27.6090    8.4060
    21         C       -7.5880  -26.9930    9.8710
    22         C       -8.3310  -25.9270    9.3830
    23         C       -9.6000  -26.1460    8.8710
    24         H       -7.9200  -24.9280    9.4030
    25         C      -10.1280  -27.4300    8.8510
    26         C       -9.3850  -28.4910    9.3320
    27         H      -11.1160  -27.6010    8.4520
    28         C       -8.1200  -28.2760    9.8440
    29         H       -9.7960  -29.4900    9.3120
    30         H       -7.5430  -29.1070   10.2230
    31         O      -10.3300  -25.1030    8.3940
    32         H      -10.8070  -24.6130    9.0770
    33         N       -0.9490  -25.3360   13.8210
    34         O       -0.2060  -24.5170   13.3080
    35         O       -0.5870  -25.9560   14.8040

 General Reference for PM6:
 "Optimization of Parameters for Semiempirical Methods V: Modification of NDDO Approximations
 and Application to 70 Elements", J. J. P. Stewart, J. Mol. Mod., 13, 1173-1213 (2007)
 URL: http://www.springerlink.com/content/ar33482301010477/fulltext.pdf

           Empirical Formula: C18 H10 N2 O5  =    35 atoms



      MOLECULAR POINT GROUP   :   C1  
 
   NUMBER AND TYPES OF BONDS IDENTIFIED
 
         SIGMA BONDS               39
         LONE PAIRS                12
         NORMAL PI BONDS            4
         AROMATIC RING PI BONDS     6
 

                  Ramachandran Angles
              Residue    phi    psi  omega

  
  SCF CRITERION =    0.1000E-02

 -------------------------------------------------------------------------------
 PM6 T=31518686 DUMP=4320 XYZ EPS=78.40 RSOLV=1.30 MULLIK LBFGS MOZYME PDBOUT +
 CHARGE=-0 RELSCF=0.1 LET DDMIN=0.0 GNORM=0.15 1SCF
 SJ000001185-1_T001S001I001C01_003: Geometry optimization step



     1SCF WAS SPECIFIED, SO BFGS WAS NOT USED                 
     SCF FIELD WAS ACHIEVED                                   


                               PM6     CALCULATION
                                                       MOPAC2009 (Version: 9.015L)
                                                       Tue Sep  6 21:09:27 2011




          FINAL HEAT OF FORMATION =        -44.73272 KCAL =    -187.16172 KJ
          VAN DER WAALS AREA      =        313.41 SQUARE ANGSTROMS


          TOTAL ENERGY            =      -4151.45517 EV
          ELECTRONIC ENERGY       =     -29694.46234 EV
          CORE-CORE REPULSION     =      25543.00717 EV
          DIELECTRIC ENERGY       =         -1.07131 EV
          COSMO AREA              =        313.41 SQUARE ANGSTROMS
          COSMO VOLUME            =        346.75 CUBIC ANGSTROMS

          NO. OF FILLED LEVELS    =         61
          MOLECULAR WEIGHT        =        334.287

          MOLECULAR DIMENSIONS (Angstroms)

            Atom       Atom       Distance
            H    27    O    34    12.33369
            H    19    H    16     6.84209
            H    32    H    30     4.72491


          SCF CALCULATIONS        =          2
          COMPUTATION TIME        =          0.468 SECONDS




   ATOM           CHEMICAL             X               Y              Z
  NUMBER           SYMBOL         (ANGSTROMS)     (ANGSTROMS)    (ANGSTROMS)
 
     1       N(     1  N     )   -6.3050000  *  -26.775000  *   10.389000  *
     2       C(     2  C     )   -6.1860000  *  -26.256000  *   11.625000  *
     3       O(     3  O     )   -7.1830000  *  -25.987000  *   12.267000  *
     4       C(     4  C     )   -4.8560000  *  -26.014000  *   12.204000  *
     5       C(     5  C     )   -4.6870000  *  -25.482000  *   13.474000  *
     6       C(     6  C     )   -3.4080000  *  -25.270000  *   13.977000  *
     7       C(     7  C     )   -2.2940000  *  -25.576000  *   13.249000  *
     8       C(     8  C     )   -3.7130000  *  -26.336000  *   11.437000  *
     9       C(     9  C     )   -2.4220000  *  -26.118000  *   11.959000  *
    10       C(    10  C     )   -1.3050000  *  -26.449000  *   11.171000  *
    11       C(    11  C     )   -1.4810000  *  -26.973000  *    9.923000  *
    12       C(    12  C     )   -2.7480000  *  -27.193000  *    9.397000  *
    13       C(    13  C     )   -3.8750000  *  -26.880000  *   10.142000  *
    14       C(    14  C     )   -5.2380000  *  -27.098000  *    9.634000  *
    15       O(    15  O     )   -5.4020000  *  -27.564000  *    8.523000  *
    16       H(    16  C     )   -5.5490000  *  -25.230000  *   14.072000  *
    17       H(    17  C     )   -3.2940000  *  -24.854000  *   14.967000  *
    18       H(    18  C     )   -0.3080000  *  -26.289000  *   11.554000  *
    19       H(    19  C     )   -0.6130000  *  -27.222000  *    9.330000  *
    20       H(    20  C     )   -2.8570000  *  -27.609000  *    8.406000  *
    21       C(    21  C     )   -7.5880000  *  -26.993000  *    9.871000  *
    22       C(    22  C     )   -8.3310000  *  -25.927000  *    9.383000  *
    23       C(    23  C     )   -9.6000000  *  -26.146000  *    8.871000  *
    24       H(    24  C     )   -7.9200000  *  -24.928000  *    9.403000  *
    25       C(    25  C     )  -10.1280000  *  -27.430000  *    8.851000  *
    26       C(    26  C     )   -9.3850000  *  -28.491000  *    9.332000  *
    27       H(    27  C     )  -11.1160000  *  -27.601000  *    8.452000  *
    28       C(    28  C     )   -8.1200000  *  -28.276000  *    9.844000  *
    29       H(    29  C     )   -9.7960000  *  -29.490000  *    9.312000  *
    30       H(    30  C     )   -7.5430000  *  -29.107000  *   10.223000  *
    31       O(    31  O     )  -10.3300000  *  -25.103000  *    8.394000  *
    32       H(    32  O     )  -10.8070000  *  -24.613000  *    9.077000  *
    33       N(    33  N     )   -0.9490000  *  -25.336000  *   13.821000  *
    34       O(    34  O     )   -0.2060000  *  -24.517000  *   13.308000  *
    35       O(    35  O     )   -0.5870000  *  -25.956000  *   14.804000  *

           Empirical Formula: C18 H10 N2 O5  =    35 atoms



              NET ATOMIC CHARGES AND DIPOLE CONTRIBUTIONS

  ATOM NO.   TYPE          CHARGE      No. of ELECS.   s-Pop       p-Pop       
    1          N          -0.373517        5.3735     1.47765     3.89587
    2          C           0.640503        3.3595     1.04997     2.30953
    3          O          -0.573797        6.5738     1.84910     4.72470
    4          C          -0.226532        4.2265     1.10441     3.12212
    5          C           0.027413        3.9726     1.10724     2.86535
    6          C          -0.130699        4.1307     1.10292     3.02777
    7          C          -0.074075        4.0741     1.10657     2.96750
    8          C           0.140270        3.8597     1.07072     2.78901
    9          C          -0.052120        4.0521     1.07094     2.98118
   10          C          -0.055609        4.0556     1.10806     2.94755
   11          C          -0.200867        4.2009     1.10307     3.09780
   12          C           0.065638        3.9344     1.10995     2.82441
   13          C          -0.285161        4.2852     1.09829     3.18687
   14          C           0.648519        3.3515     1.05044     2.30104
   15          O          -0.582924        6.5829     1.84856     4.73436
   16          H           0.191868        0.8081     0.80813
   17          H           0.203790        0.7962     0.79621
   18          H           0.177239        0.8228     0.82276
   19          H           0.192376        0.8076     0.80762
   20          H           0.179348        0.8207     0.82065
   21          C           0.216803        3.7832     1.05106     2.73213
   22          C          -0.332345        4.3323     1.11349     3.21885
   23          C           0.342327        3.6577     1.05952     2.59815
   24          H           0.201120        0.7989     0.79888
   25          C          -0.290041        4.2900     1.11123     3.17881
   26          C          -0.037802        4.0378     1.09874     2.93907
   27          H           0.190679        0.8093     0.80932
   28          C          -0.248949        4.2489     1.10698     3.14197
   29          H           0.168417        0.8316     0.83158
   30          H           0.186888        0.8131     0.81311
   31          O          -0.562587        6.5626     1.77282     4.78977
   32          H           0.377635        0.6224     0.62237
   33          N           0.841861        4.1581     1.30520     2.85294
   34          O          -0.486494        6.4865     1.91774     4.56875
   35          O          -0.479175        6.4792     1.91719     4.56198


          CARTESIAN COORDINATES 

    NO.       ATOM               X         Y         Z

     1         N                 -6.3050  -26.7750   10.3890
     2         C                 -6.1860  -26.2560   11.6250
     3         O                 -7.1830  -25.9870   12.2670
     4         C                 -4.8560  -26.0140   12.2040
     5         C                 -4.6870  -25.4820   13.4740
     6         C                 -3.4080  -25.2700   13.9770
     7         C                 -2.2940  -25.5760   13.2490
     8         C                 -3.7130  -26.3360   11.4370
     9         C                 -2.4220  -26.1180   11.9590
    10         C                 -1.3050  -26.4490   11.1710
    11         C                 -1.4810  -26.9730    9.9230
    12         C                 -2.7480  -27.1930    9.3970
    13         C                 -3.8750  -26.8800   10.1420
    14         C                 -5.2380  -27.0980    9.6340
    15         O                 -5.4020  -27.5640    8.5230
    16         H                 -5.5490  -25.2300   14.0720
    17         H                 -3.2940  -24.8540   14.9670
    18         H                 -0.3080  -26.2890   11.5540
    19         H                 -0.6130  -27.2220    9.3300
    20         H                 -2.8570  -27.6090    8.4060
    21         C                 -7.5880  -26.9930    9.8710
    22         C                 -8.3310  -25.9270    9.3830
    23         C                 -9.6000  -26.1460    8.8710
    24         H                 -7.9200  -24.9280    9.4030
    25         C                -10.1280  -27.4300    8.8510
    26         C                 -9.3850  -28.4910    9.3320
    27         H                -11.1160  -27.6010    8.4520
    28         C                 -8.1200  -28.2760    9.8440
    29         H                 -9.7960  -29.4900    9.3120
    30         H                 -7.5430  -29.1070   10.2230
    31         O                -10.3300  -25.1030    8.3940
    32         H                -10.8070  -24.6130    9.0770
    33         N                 -0.9490  -25.3360   13.8210
    34         O                 -0.2060  -24.5170   13.3080
    35         O                 -0.5870  -25.9560   14.8040


          ATOMIC ORBITAL ELECTRON POPULATIONS

   1.47765   1.13750   1.54715   1.21122   1.04997   0.85073   0.69403   0.76477
   1.84910   1.49741   1.57307   1.65422   1.10441   0.99490   1.09819   1.02903
   1.10724   1.03092   0.87151   0.96292   1.10292   0.96226   0.98601   1.07950
   1.10657   0.90706   1.06222   0.99822   1.07072   0.93690   0.91969   0.93242
   1.07094   0.99143   1.03740   0.95235   1.10806   1.04973   0.91867   0.97915
   1.10307   1.05971   1.01568   1.02241   1.10995   0.94083   0.85085   1.03273
   1.09829   1.00489   1.15330   1.02868   1.05044   0.83188   0.69232   0.77684
   1.84856   1.85839   1.52515   1.35083   0.80813   0.79621   0.82276   0.80762
   0.82065   1.05106   0.82244   0.95434   0.95535   1.11349   1.04257   1.10279
   1.07349   1.05952   0.87617   0.83222   0.88976   0.79888   1.11123   1.10534
   0.99949   1.07397   1.09874   0.96011   1.05367   0.92529   0.80932   1.10698
   1.03580   1.04632   1.05985   0.83158   0.81311   1.77282   1.70810   1.53689
   1.54478   0.62237   1.30520   0.98683   0.92807   0.93804   1.91774   1.55738
   1.36463   1.64674   1.91719   1.78281   1.51791   1.26126

           MULLIKEN POPULATION ANALYSIS



        MULLIKEN POPULATIONS AND CHARGES

      NO.  ATOM   POPULATION      CHARGE
        1    N     5.546067     -0.546067
        2    C     3.276595      0.723405
        3    O     6.592319     -0.592319
        4    C     4.257138     -0.257138
        5    C     4.010181     -0.010181
        6    C     4.183610     -0.183610
        7    C     4.071786     -0.071786
        8    C     3.836021      0.163979
        9    C     4.056247     -0.056247
       10    C     4.101063     -0.101063
       11    C     4.264805     -0.264805
       12    C     3.969248      0.030752
       13    C     4.315606     -0.315606
       14    C     3.267813      0.732187
       15    O     6.602024     -0.602024
       16    H     0.747673      0.252327
       17    H     0.732121      0.267879
       18    H     0.766049      0.233951
       19    H     0.746915      0.253085
       20    H     0.763484      0.236516
       21    C     3.739430      0.260570
       22    C     4.397479     -0.397479
       23    C     3.638900      0.361100
       24    H     0.735871      0.264129
       25    C     4.356458     -0.356458
       26    C     4.079630     -0.079630
       27    H     0.748862      0.251138
       28    C     4.307673     -0.307673
       29    H     0.777705      0.222295
       30    H     0.753890      0.246110
       31    O     6.612664     -0.612664
       32    H     0.587290      0.412710
       33    N     4.210801      0.789199
       34    O     6.477015     -0.477015
       35    O     6.469564     -0.469564



 TOTAL CPU TIME:             0.48 SECONDS

 == MOPAC DONE ==
 *******************************************************************************
 ** Site#:  958            For non-commercial use only         Version 9.015L **
 *******************************************************************************
 ** Cite this work as: MOPAC2009, James J. P. Stewart, Stewart Computational  **
 ** Chemistry, Version 9.015L web: HTTP://OpenMOPAC.net                       **
 *******************************************************************************
 **                                                                           **
 **                                MOPAC2009                                  **
 **                                                                           **
 *******************************************************************************

                            PM6 CALCULATION RESULTS


 *******************************************************************************
 *  CALCULATION DONE:                                Tue Sep  6 21:09:27 2011  *
 *  PM6      - The PM6 Hamiltonian to be used
 *  GEO-OK   - OVERRIDE INTERATOMIC DISTANCE CHECK
 *  MOZYME   - USE LOCALIZED M.O.s IN SOLVING THE SCF EQUATIONS
 *
 *
 *
 *                 CHARGE ON SYSTEM =     0
 *
 *
 *
 *  EPS= 78.400
 *  RSOLV=  1.300
 *  OLDGEO   - PREVIOUS GEOMETRY TO BE USED
 *  T=       - A TIME OF 172800.0 SECONDS REQUESTED
 *  DUMP=N   - RESTART FILE WRITTEN EVERY  4320.000 SECONDS
 *  RELSCF   - DEFAULT SCF CRITERION MULTIPLIED BY   0.100    
 *             (DEFAULT SCFCRT= 0.00010)
 *  THERMO   - THERMODYNAMIC QUANTITIES TO BE CALCULATED
 *******************************************************************************
 PM6 DUMP=4320 MOZYME RELSCF=0.1 THERMO EPS=78.40 RSOLV=1.30 +
 OLDGEO GEO-OK CHARGE=-0
 SJ000001185-1_T001S001I001C01_003: Free energy calculation

   ATOM           CHEMICAL             X               Y              Z
  NUMBER           SYMBOL         (ANGSTROMS)     (ANGSTROMS)    (ANGSTROMS)
 
     1       N(     1  N     )   -6.3050000  *  -26.775000  *   10.389000  *
     2       C(     2  C     )   -6.1860000  *  -26.256000  *   11.625000  *
     3       O(     3  O     )   -7.1830000  *  -25.987000  *   12.267000  *
     4       C(     4  C     )   -4.8560000  *  -26.014000  *   12.204000  *
     5       C(     5  C     )   -4.6870000  *  -25.482000  *   13.474000  *
     6       C(     6  C     )   -3.4080000  *  -25.270000  *   13.977000  *
     7       C(     7  C     )   -2.2940000  *  -25.576000  *   13.249000  *
     8       C(     8  C     )   -3.7130000  *  -26.336000  *   11.437000  *
     9       C(     9  C     )   -2.4220000  *  -26.118000  *   11.959000  *
    10       C(    10  C     )   -1.3050000  *  -26.449000  *   11.171000  *
    11       C(    11  C     )   -1.4810000  *  -26.973000  *    9.923000  *
    12       C(    12  C     )   -2.7480000  *  -27.193000  *    9.397000  *
    13       C(    13  C     )   -3.8750000  *  -26.880000  *   10.142000  *
    14       C(    14  C     )   -5.2380000  *  -27.098000  *    9.634000  *
    15       O(    15  O     )   -5.4020000  *  -27.564000  *    8.523000  *
    16       H(    16  C     )   -5.5490000  *  -25.230000  *   14.072000  *
    17       H(    17  C     )   -3.2940000  *  -24.854000  *   14.967000  *
    18       H(    18  C     )   -0.3080000  *  -26.289000  *   11.554000  *
    19       H(    19  C     )   -0.6130000  *  -27.222000  *    9.330000  *
    20       H(    20  C     )   -2.8570000  *  -27.609000  *    8.406000  *
    21       C(    21  C     )   -7.5880000  *  -26.993000  *    9.871000  *
    22       C(    22  C     )   -8.3310000  *  -25.927000  *    9.383000  *
    23       C(    23  C     )   -9.6000000  *  -26.146000  *    8.871000  *
    24       H(    24  C     )   -7.9200000  *  -24.928000  *    9.403000  *
    25       C(    25  C     )  -10.1280000  *  -27.430000  *    8.851000  *
    26       C(    26  C     )   -9.3850000  *  -28.491000  *    9.332000  *
    27       H(    27  C     )  -11.1160000  *  -27.601000  *    8.452000  *
    28       C(    28  C     )   -8.1200000  *  -28.276000  *    9.844000  *
    29       H(    29  C     )   -9.7960000  *  -29.490000  *    9.312000  *
    30       H(    30  C     )   -7.5430000  *  -29.107000  *   10.223000  *
    31       O(    31  O     )  -10.3300000  *  -25.103000  *    8.394000  *
    32       H(    32  O     )  -10.8070000  *  -24.613000  *    9.077000  *
    33       N(    33  N     )   -0.9490000  *  -25.336000  *   13.821000  *
    34       O(    34  O     )   -0.2060000  *  -24.517000  *   13.308000  *
    35       O(    35  O     )   -0.5870000  *  -25.956000  *   14.804000  *
 


          CARTESIAN COORDINATES 

    NO.       ATOM         X         Y         Z

     1         N       -6.3050  -26.7750   10.3890
     2         C       -6.1860  -26.2560   11.6250
     3         O       -7.1830  -25.9870   12.2670
     4         C       -4.8560  -26.0140   12.2040
     5         C       -4.6870  -25.4820   13.4740
     6         C       -3.4080  -25.2700   13.9770
     7         C       -2.2940  -25.5760   13.2490
     8         C       -3.7130  -26.3360   11.4370
     9         C       -2.4220  -26.1180   11.9590
    10         C       -1.3050  -26.4490   11.1710
    11         C       -1.4810  -26.9730    9.9230
    12         C       -2.7480  -27.1930    9.3970
    13         C       -3.8750  -26.8800   10.1420
    14         C       -5.2380  -27.0980    9.6340
    15         O       -5.4020  -27.5640    8.5230
    16         H       -5.5490  -25.2300   14.0720
    17         H       -3.2940  -24.8540   14.9670
    18         H       -0.3080  -26.2890   11.5540
    19         H       -0.6130  -27.2220    9.3300
    20         H       -2.8570  -27.6090    8.4060
    21         C       -7.5880  -26.9930    9.8710
    22         C       -8.3310  -25.9270    9.3830
    23         C       -9.6000  -26.1460    8.8710
    24         H       -7.9200  -24.9280    9.4030
    25         C      -10.1280  -27.4300    8.8510
    26         C       -9.3850  -28.4910    9.3320
    27         H      -11.1160  -27.6010    8.4520
    28         C       -8.1200  -28.2760    9.8440
    29         H       -9.7960  -29.4900    9.3120
    30         H       -7.5430  -29.1070   10.2230
    31         O      -10.3300  -25.1030    8.3940
    32         H      -10.8070  -24.6130    9.0770
    33         N       -0.9490  -25.3360   13.8210
    34         O       -0.2060  -24.5170   13.3080
    35         O       -0.5870  -25.9560   14.8040

 General Reference for PM6:
 "Optimization of Parameters for Semiempirical Methods V: Modification of NDDO Approximations
 and Application to 70 Elements", J. J. P. Stewart, J. Mol. Mod., 13, 1173-1213 (2007)
 URL: http://www.springerlink.com/content/ar33482301010477/fulltext.pdf

           Empirical Formula: C18 H10 N2 O5  =    35 atoms



      MOLECULAR POINT GROUP   :   C1  
 
   NUMBER AND TYPES OF BONDS IDENTIFIED
 
         SIGMA BONDS               39
         LONE PAIRS                12
         NORMAL PI BONDS            4
         AROMATIC RING PI BONDS     6
 
  SCF CRITERION =    0.1000E-02


          HEAT OF FORMATION =     -44.732374 KCALS/MOLE


          INTERNAL COORDINATE DERIVATIVES

   NUMBER  ATOM       BOND         ANGLE      DIHEDRAL

     1       N
     2       C      5.142109
     3       O    -12.610998     0.176068
     4       C   -103.787019    -8.161784     0.450726
     5       C    -16.389321   -28.357094    -0.347784
     6       C    -16.254382    11.098879    -0.035757
     7       C     25.039620   -24.590123     0.510918
     8       C    -27.101347    14.897538    -1.165652
     9       C    -10.697034     7.034906    -0.165540
    10       C      0.216351    -1.854487    -0.253472
    11       C      5.247812     3.750878     1.021116
    12       C      4.369799    15.333250    -0.382097
    13       C     -0.952855    25.111487     0.110659
    14       C     12.032891   -31.105856     0.014485
    15       O     -1.736109    11.330700    -0.520905
    16       H     60.171934    91.056269     0.436122
    17       H     33.471983    -2.675980     0.053911
    18       H     -7.947587   -11.767735    -0.020167
    19       H    -16.283022    -2.899542     0.063976
    20       H     -3.758948    10.829919     0.252682
    21       C      8.132282    10.474325     0.009630
    22       C     12.829170    -0.270998     0.002131
    23       C     32.849247   -57.390521     0.674907
    24       H     -9.752402     9.864490    23.084943
    25       C     -9.292096     0.601511   -11.363415
    26       C     -3.930929     1.895766     9.389249
    27       H     13.030628   -19.336753     1.033099
    28       C      6.161076    -5.279166    -7.855660
    29       H      4.295843    -9.372928     0.878347
    30       H     -1.892212    11.630967   -18.565695
    31       O      3.976019    -3.523341    -8.432751
    32       H     -0.468912     4.720093    -9.002452
    33       N     19.631384    -2.761132    17.485145
    34       O    -12.698659    -7.113498     2.309156
    35       O    -11.334798    12.602162     1.257150


          GRADIENT NORM = 199.91694



 ** GRADIENT IS TOO LARGE TO ALLOW FORCE MATRIX TO BE CALCULATED, (LIMIT=10) **



 EITHER ADD 'LET' OR REDUCE GRADIENT
 USING 'TS' OR OTHER GEOMETRY OPTIMIZER



 TOTAL CPU TIME:             1.13 SECONDS

 == MOPAC DONE ==
