 *******************************************************************************
 ** Site#:  958            For non-commercial use only         Version 9.015L **
 *******************************************************************************
 ** Cite this work as: MOPAC2009, James J. P. Stewart, Stewart Computational  **
 ** Chemistry, Version 9.015L web: HTTP://OpenMOPAC.net                       **
 *******************************************************************************
 **                                                                           **
 **                                MOPAC2009                                  **
 **                                                                           **
 *******************************************************************************

                            PM6 CALCULATION RESULTS


 *******************************************************************************
 *  CALCULATION DONE:                                Wed Sep  7 07:03:28 2011  *
 *  PM6      - The PM6 Hamiltonian to be used
 *  PDBOUT   - PRINT GEOMETY IN PDB FORMAT
 *  MOZYME   - USE LOCALIZED M.O.s IN SOLVING THE SCF EQUATIONS
 *
 *
 *
 *                 CHARGE ON SYSTEM =     0
 *
 *
 *
 *  EPS= 78.400
 *  RSOLV=  1.300
 *  LET      - OVERRIDE SOME SAFETY CHECKS
 *  XYZ      - CARTESIAN COORDINATE SYSTEM TO BE USED
 *  LBFGS    - USE THE LBFGS GEOMETRY OPTIMIZER
 *  1SCF     - DO 1 SCF AND THEN STOP 
 *  T=       - A TIME OF  0.3E+08 SECONDS REQUESTED
 *  DUMP=N   - RESTART FILE WRITTEN EVERY  4320.000 SECONDS
 *  DDMIN=   - MINIMUM TRUST RADIUS  0.000 ANG/RAD
 *  GNORM=   - EXIT WHEN GRADIENT NORM DROPS BELOW .150    
 *  RELSCF   - DEFAULT SCF CRITERION MULTIPLIED BY   0.100    
 *             (DEFAULT SCFCRT= 0.00010)
 *  MULLIK   - THE MULLIKEN ANALYSIS TO BE PERFORMED
 *******************************************************************************
 PM6 T=31483044 DUMP=4320 XYZ EPS=78.40 RSOLV=1.30 MULLIK LBFGS MOZYME PDBOUT +
 CHARGE=0 RELSCF=0.1 LET DDMIN=0.0 GNORM=0.15 1SCF
 SJ000001677-1_T001S001I001C01_001: Geometry optimization step

   ATOM   CHEMICAL          X               Y              Z
  NUMBER   SYMBOL      (ANGSTROMS)     (ANGSTROMS)    (ANGSTROMS)
 
     1       C         -2.8190000  *  -25.827000  *   13.291000  *
     2       C         -4.2660000  *  -25.687000  *   13.545000  *
     3       O         -4.6620000  *  -25.211000  *   14.591000  *
     4       C         -5.2280000  *  -26.132000  *   12.512000  *
     5       C         -6.5680000  *  -25.776000  *   12.577000  *
     6       C         -7.4430000  *  -26.211000  *   11.592000  *
     7       C         -6.9910000  *  -26.995000  *   10.549000  *
     8       C         -5.6540000  *  -27.359000  *   10.471000  *
     9       C         -4.7660000  *  -26.931000  *   11.449000  *
    10       C         -3.3340000  *  -27.297000  *   11.400000  *
    11       O         -2.9490000  *  -28.170000  *   10.648000  *
    12       C         -2.3770000  *  -26.585000  *   12.273000  *
    13      Br         -0.5190000  *  -26.745000  *   11.960000  *
    14       H         -6.9280000  *  -25.163000  *   13.390000  *
    15       H         -8.4860000  *  -25.934000  *   11.642000  *
    16       H         -7.6810000  *  -27.328000  *    9.789000  *
    17       H         -5.3050000  *  -27.972000  *    9.654000  *
    18       C         -1.8300000  *  -25.112000  *   14.175000  *
    19       H         -2.3650000  *  -24.468000  *   14.872000  *
    20       H         -1.2460000  *  -25.844000  *   14.733000  *
    21       H         -1.1640000  *  -24.508000  *   13.559000  *
 


          CARTESIAN COORDINATES 

    NO.       ATOM         X         Y         Z

     1         C       -2.8190  -25.8270   13.2910
     2         C       -4.2660  -25.6870   13.5450
     3         O       -4.6620  -25.2110   14.5910
     4         C       -5.2280  -26.1320   12.5120
     5         C       -6.5680  -25.7760   12.5770
     6         C       -7.4430  -26.2110   11.5920
     7         C       -6.9910  -26.9950   10.5490
     8         C       -5.6540  -27.3590   10.4710
     9         C       -4.7660  -26.9310   11.4490
    10         C       -3.3340  -27.2970   11.4000
    11         O       -2.9490  -28.1700   10.6480
    12         C       -2.3770  -26.5850   12.2730
    13        Br       -0.5190  -26.7450   11.9600
    14         H       -6.9280  -25.1630   13.3900
    15         H       -8.4860  -25.9340   11.6420
    16         H       -7.6810  -27.3280    9.7890
    17         H       -5.3050  -27.9720    9.6540
    18         C       -1.8300  -25.1120   14.1750
    19         H       -2.3650  -24.4680   14.8720
    20         H       -1.2460  -25.8440   14.7330
    21         H       -1.1640  -24.5080   13.5590

 General Reference for PM6:
 "Optimization of Parameters for Semiempirical Methods V: Modification of NDDO Approximations
 and Application to 70 Elements", J. J. P. Stewart, J. Mol. Mod., 13, 1173-1213 (2007)
 URL: http://www.springerlink.com/content/ar33482301010477/fulltext.pdf

           Empirical Formula: C11 H7 O2 Br  =    21 atoms



      MOLECULAR POINT GROUP   :   C1  
 
   NUMBER AND TYPES OF BONDS IDENTIFIED
 
         SIGMA BONDS               22
         LONE PAIRS                 7
         NORMAL PI BONDS            3
         AROMATIC RING PI BONDS     3
 

                  Ramachandran Angles
              Residue    phi    psi  omega

  
  SCF CRITERION =    0.1000E-02

 -------------------------------------------------------------------------------
 PM6 T=31483044 DUMP=4320 XYZ EPS=78.40 RSOLV=1.30 MULLIK LBFGS MOZYME PDBOUT +
 CHARGE=0 RELSCF=0.1 LET DDMIN=0.0 GNORM=0.15 1SCF
 SJ000001677-1_T001S001I001C01_001: Geometry optimization step



     1SCF WAS SPECIFIED, SO BFGS WAS NOT USED                 
     SCF FIELD WAS ACHIEVED                                   


                               PM6     CALCULATION
                                                       MOPAC2009 (Version: 9.015L)
                                                       Wed Sep  7 07:03:28 2011




          FINAL HEAT OF FORMATION =        -29.46748 KCAL =    -123.29194 KJ
          VAN DER WAALS AREA      =        213.98 SQUARE ANGSTROMS


          TOTAL ENERGY            =      -2253.35771 EV
          ELECTRONIC ENERGY       =     -12358.10323 EV
          CORE-CORE REPULSION     =      10104.74552 EV
          DIELECTRIC ENERGY       =         -0.50527 EV
          COSMO AREA              =        213.98 SQUARE ANGSTROMS
          COSMO VOLUME            =        227.72 CUBIC ANGSTROMS

          NO. OF FILLED LEVELS    =         35
          MOLECULAR WEIGHT        =        251.079

          MOLECULAR DIMENSIONS (Angstroms)

            Atom       Atom       Distance
            H    16    H    20     8.24952
            H    14    O    11     5.61671
            O     3    H    21     1.94380


          SCF CALCULATIONS        =          2
          COMPUTATION TIME        =          0.157 SECONDS




   ATOM           CHEMICAL             X               Y              Z
  NUMBER           SYMBOL         (ANGSTROMS)     (ANGSTROMS)    (ANGSTROMS)
 
     1       C(     1  C     )   -2.8190000  *  -25.827000  *   13.291000  *
     2       C(     2  C     )   -4.2660000  *  -25.687000  *   13.545000  *
     3       O(     3  O     )   -4.6620000  *  -25.211000  *   14.591000  *
     4       C(     4  C     )   -5.2280000  *  -26.132000  *   12.512000  *
     5       C(     5  C     )   -6.5680000  *  -25.776000  *   12.577000  *
     6       C(     6  C     )   -7.4430000  *  -26.211000  *   11.592000  *
     7       C(     7  C     )   -6.9910000  *  -26.995000  *   10.549000  *
     8       C(     8  C     )   -5.6540000  *  -27.359000  *   10.471000  *
     9       C(     9  C     )   -4.7660000  *  -26.931000  *   11.449000  *
    10       C(    10  C     )   -3.3340000  *  -27.297000  *   11.400000  *
    11       O(    11  O     )   -2.9490000  *  -28.170000  *   10.648000  *
    12       C(    12  C     )   -2.3770000  *  -26.585000  *   12.273000  *
    13      Br(    13 Br     )   -0.5190000  *  -26.745000  *   11.960000  *
    14       H(    14  C     )   -6.9280000  *  -25.163000  *   13.390000  *
    15       H(    15  C     )   -8.4860000  *  -25.934000  *   11.642000  *
    16       H(    16  C     )   -7.6810000  *  -27.328000  *    9.789000  *
    17       H(    17  C     )   -5.3050000  *  -27.972000  *    9.654000  *
    18       C(    18  C     )   -1.8300000  *  -25.112000  *   14.175000  *
    19       H(    19  C     )   -2.3650000  *  -24.468000  *   14.872000  *
    20       H(    20  C     )   -1.2460000  *  -25.844000  *   14.733000  *
    21       H(    21  C     )   -1.1640000  *  -24.508000  *   13.559000  *

           Empirical Formula: C11 H7 O2 Br  =    21 atoms



              NET ATOMIC CHARGES AND DIPOLE CONTRIBUTIONS

  ATOM NO.   TYPE          CHARGE      No. of ELECS.   s-Pop       p-Pop       d-Pop       
    1          C           0.032866        3.9671     1.12668     2.84045
    2          C           0.528062        3.4719     1.10312     2.36882
    3          O          -0.503629        6.5036     1.85191     4.65172
    4          C          -0.150530        4.1505     1.10219     3.04834
    5          C          -0.072770        4.0728     1.10646     2.96631
    6          C          -0.122426        4.1224     1.10803     3.01439
    7          C          -0.121826        4.1218     1.10796     3.01387
    8          C          -0.072542        4.0725     1.10644     2.96611
    9          C          -0.152702        4.1527     1.10205     3.05065
   10          C           0.575404        3.4246     1.09377     2.33083
   11          O          -0.527609        6.5276     1.84991     4.67770
   12          C          -0.200432        4.2004     1.13116     3.06928
   13         Br          -0.023290        7.0233     1.98693     5.02745     0.00891
   14          H           0.178236        0.8218     0.82176
   15          H           0.176326        0.8237     0.82367
   16          H           0.176191        0.8238     0.82381
   17          H           0.178411        0.8216     0.82159
   18          C          -0.475905        4.4759     1.08565     3.39026
   19          H           0.184103        0.8159     0.81590
   20          H           0.197904        0.8021     0.80210
   21          H           0.196157        0.8038     0.80384


          CARTESIAN COORDINATES 

    NO.       ATOM               X         Y         Z

     1         C                 -2.8190  -25.8270   13.2910
     2         C                 -4.2660  -25.6870   13.5450
     3         O                 -4.6620  -25.2110   14.5910
     4         C                 -5.2280  -26.1320   12.5120
     5         C                 -6.5680  -25.7760   12.5770
     6         C                 -7.4430  -26.2110   11.5920
     7         C                 -6.9910  -26.9950   10.5490
     8         C                 -5.6540  -27.3590   10.4710
     9         C                 -4.7660  -26.9310   11.4490
    10         C                 -3.3340  -27.2970   11.4000
    11         O                 -2.9490  -28.1700   10.6480
    12         C                 -2.3770  -26.5850   12.2730
    13        Br                 -0.5190  -26.7450   11.9600
    14         H                 -6.9280  -25.1630   13.3900
    15         H                 -8.4860  -25.9340   11.6420
    16         H                 -7.6810  -27.3280    9.7890
    17         H                 -5.3050  -27.9720    9.6540
    18         C                 -1.8300  -25.1120   14.1750
    19         H                 -2.3650  -24.4680   14.8720
    20         H                 -1.2460  -25.8440   14.7330
    21         H                 -1.1640  -24.5080   13.5590


          ATOMIC ORBITAL ELECTRON POPULATIONS

   1.12668   0.99120   0.91114   0.93810   1.10312   0.89013   0.66806   0.81063
   1.85191   1.83235   1.43108   1.38829   1.10219   1.00623   1.03820   1.00391
   1.10646   0.96055   0.97992   1.02583   1.10803   1.07950   0.96802   0.96687
   1.10796   1.01606   0.97106   1.02675   1.10644   0.97521   0.97557   1.01532
   1.10205   0.99387   1.04278   1.01400   1.09377   0.87327   0.73344   0.72413
   1.84991   1.82881   1.39668   1.45221   1.13116   0.92355   1.08695   1.05878
   1.98693   1.09793   1.97041   1.95911   0.00335   0.00202   0.00128   0.00065
   0.00160   0.82176   0.82367   0.82381   0.82159   1.08565   1.10933   1.15245
   1.12848   0.81590   0.80210   0.80384

           MULLIKEN POPULATION ANALYSIS



        MULLIKEN POPULATIONS AND CHARGES

      NO.  ATOM   POPULATION      CHARGE
        1    C     3.989635      0.010365
        2    C     3.444097      0.555903
        3    O     6.526011     -0.526011
        4    C     4.165820     -0.165820
        5    C     4.116571     -0.116571
        6    C     4.178697     -0.178697
        7    C     4.178149     -0.178149
        8    C     4.116426     -0.116426
        9    C     4.169706     -0.169706
       10    C     3.399195      0.600805
       11    O     6.553136     -0.553136
       12    C     4.380175     -0.380175
       13   Br     6.810307      0.189693
       14    H     0.764887      0.235113
       15    H     0.767249      0.232751
       16    H     0.767265      0.232735
       17    H     0.764555      0.235445
       18    C     4.628885     -0.628885
       19    H     0.763059      0.236941
       20    H     0.755262      0.244738
       21    H     0.760913      0.239087



 TOTAL CPU TIME:             0.16 SECONDS

 == MOPAC DONE ==
 *******************************************************************************
 ** Site#:  958            For non-commercial use only         Version 9.015L **
 *******************************************************************************
 ** Cite this work as: MOPAC2009, James J. P. Stewart, Stewart Computational  **
 ** Chemistry, Version 9.015L web: HTTP://OpenMOPAC.net                       **
 *******************************************************************************
 **                                                                           **
 **                                MOPAC2009                                  **
 **                                                                           **
 *******************************************************************************

                            PM6 CALCULATION RESULTS


 *******************************************************************************
 *  CALCULATION DONE:                                Wed Sep  7 07:03:28 2011  *
 *  PM6      - The PM6 Hamiltonian to be used
 *  GEO-OK   - OVERRIDE INTERATOMIC DISTANCE CHECK
 *  MOZYME   - USE LOCALIZED M.O.s IN SOLVING THE SCF EQUATIONS
 *
 *
 *
 *                 CHARGE ON SYSTEM =     0
 *
 *
 *
 *  EPS= 78.400
 *  RSOLV=  1.300
 *  OLDGEO   - PREVIOUS GEOMETRY TO BE USED
 *  T=       - A TIME OF 172800.0 SECONDS REQUESTED
 *  DUMP=N   - RESTART FILE WRITTEN EVERY  4320.000 SECONDS
 *  RELSCF   - DEFAULT SCF CRITERION MULTIPLIED BY   0.100    
 *             (DEFAULT SCFCRT= 0.00010)
 *  THERMO   - THERMODYNAMIC QUANTITIES TO BE CALCULATED
 *******************************************************************************
 PM6 DUMP=4320 MOZYME RELSCF=0.1 THERMO EPS=78.40 RSOLV=1.30 +
 OLDGEO GEO-OK CHARGE=0
 SJ000001677-1_T001S001I001C01_001: Free energy calculation

   ATOM           CHEMICAL             X               Y              Z
  NUMBER           SYMBOL         (ANGSTROMS)     (ANGSTROMS)    (ANGSTROMS)
 
     1       C(     1  C     )   -2.8190000  *  -25.827000  *   13.291000  *
     2       C(     2  C     )   -4.2660000  *  -25.687000  *   13.545000  *
     3       O(     3  O     )   -4.6620000  *  -25.211000  *   14.591000  *
     4       C(     4  C     )   -5.2280000  *  -26.132000  *   12.512000  *
     5       C(     5  C     )   -6.5680000  *  -25.776000  *   12.577000  *
     6       C(     6  C     )   -7.4430000  *  -26.211000  *   11.592000  *
     7       C(     7  C     )   -6.9910000  *  -26.995000  *   10.549000  *
     8       C(     8  C     )   -5.6540000  *  -27.359000  *   10.471000  *
     9       C(     9  C     )   -4.7660000  *  -26.931000  *   11.449000  *
    10       C(    10  C     )   -3.3340000  *  -27.297000  *   11.400000  *
    11       O(    11  O     )   -2.9490000  *  -28.170000  *   10.648000  *
    12       C(    12  C     )   -2.3770000  *  -26.585000  *   12.273000  *
    13      Br(    13 Br     )   -0.5190000  *  -26.745000  *   11.960000  *
    14       H(    14  C     )   -6.9280000  *  -25.163000  *   13.390000  *
    15       H(    15  C     )   -8.4860000  *  -25.934000  *   11.642000  *
    16       H(    16  C     )   -7.6810000  *  -27.328000  *    9.789000  *
    17       H(    17  C     )   -5.3050000  *  -27.972000  *    9.654000  *
    18       C(    18  C     )   -1.8300000  *  -25.112000  *   14.175000  *
    19       H(    19  C     )   -2.3650000  *  -24.468000  *   14.872000  *
    20       H(    20  C     )   -1.2460000  *  -25.844000  *   14.733000  *
    21       H(    21  C     )   -1.1640000  *  -24.508000  *   13.559000  *
 


          CARTESIAN COORDINATES 

    NO.       ATOM         X         Y         Z

     1         C       -2.8190  -25.8270   13.2910
     2         C       -4.2660  -25.6870   13.5450
     3         O       -4.6620  -25.2110   14.5910
     4         C       -5.2280  -26.1320   12.5120
     5         C       -6.5680  -25.7760   12.5770
     6         C       -7.4430  -26.2110   11.5920
     7         C       -6.9910  -26.9950   10.5490
     8         C       -5.6540  -27.3590   10.4710
     9         C       -4.7660  -26.9310   11.4490
    10         C       -3.3340  -27.2970   11.4000
    11         O       -2.9490  -28.1700   10.6480
    12         C       -2.3770  -26.5850   12.2730
    13        Br       -0.5190  -26.7450   11.9600
    14         H       -6.9280  -25.1630   13.3900
    15         H       -8.4860  -25.9340   11.6420
    16         H       -7.6810  -27.3280    9.7890
    17         H       -5.3050  -27.9720    9.6540
    18         C       -1.8300  -25.1120   14.1750
    19         H       -2.3650  -24.4680   14.8720
    20         H       -1.2460  -25.8440   14.7330
    21         H       -1.1640  -24.5080   13.5590

 General Reference for PM6:
 "Optimization of Parameters for Semiempirical Methods V: Modification of NDDO Approximations
 and Application to 70 Elements", J. J. P. Stewart, J. Mol. Mod., 13, 1173-1213 (2007)
 URL: http://www.springerlink.com/content/ar33482301010477/fulltext.pdf

           Empirical Formula: C11 H7 O2 Br  =    21 atoms



      MOLECULAR POINT GROUP   :   C1  
 
   NUMBER AND TYPES OF BONDS IDENTIFIED
 
         SIGMA BONDS               22
         LONE PAIRS                 7
         NORMAL PI BONDS            3
         AROMATIC RING PI BONDS     3
 
  SCF CRITERION =    0.1000E-02


          HEAT OF FORMATION =     -29.466539 KCALS/MOLE


          INTERNAL COORDINATE DERIVATIVES

   NUMBER  ATOM       BOND         ANGLE      DIHEDRAL

     1       C
     2       C     38.017003
     3       O     -8.684454    -3.707868
     4       C    -24.550136   -12.764929    -1.461524
     5       C     -4.658288   -10.404386    -0.165418
     6       C      9.231600     4.733634     0.819321
     7       C      3.344137   -13.433061    -0.546211
     8       C    -13.294381     3.122166    -2.518872
     9       C     -7.618494    10.023354    -0.465960
    10       C     13.613868     1.878448     3.502788
    11       O     -1.145833   -11.637984    -3.295913
    12       C     12.250381    16.950764     5.182187
    13      Br      7.926414     9.238191     4.958876
    14       H     -4.130989    -7.980986    -2.967305
    15       H      1.375092    11.072376     3.604488
    16       H     -5.078713    -9.437502    -2.034103
    17       H    -10.576686     0.014796    -2.188611
    18       C     -5.063256    10.250702     0.113324
    19       H      5.954759     9.193651     2.353637
    20       H    -27.211424    19.921886     4.066530
    21       H     -0.036077   -10.253644    -2.606916


          GRADIENT NORM =  79.09300



 ** GRADIENT IS TOO LARGE TO ALLOW FORCE MATRIX TO BE CALCULATED, (LIMIT=10) **



 EITHER ADD 'LET' OR REDUCE GRADIENT
 USING 'TS' OR OTHER GEOMETRY OPTIMIZER



 TOTAL CPU TIME:             0.37 SECONDS

 == MOPAC DONE ==
