 *******************************************************************************
 ** Site#:  958            For non-commercial use only         Version 9.015L **
 *******************************************************************************
 ** Cite this work as: MOPAC2009, James J. P. Stewart, Stewart Computational  **
 ** Chemistry, Version 9.015L web: HTTP://OpenMOPAC.net                       **
 *******************************************************************************
 **                                                                           **
 **                                MOPAC2009                                  **
 **                                                                           **
 *******************************************************************************

                            PM6 CALCULATION RESULTS


 *******************************************************************************
 *  CALCULATION DONE:                                Tue Sep  6 16:25:42 2011  *
 *  PM6      - The PM6 Hamiltonian to be used
 *
 *
 *
 *                 CHARGE ON SYSTEM =     0
 *
 *
 *
 *  EPS= 78.400
 *  RSOLV=  1.300
 *  LET      - OVERRIDE SOME SAFETY CHECKS
 *  XYZ      - CARTESIAN COORDINATE SYSTEM TO BE USED
 *  T=       - A TIME OF  0.3E+08 SECONDS REQUESTED
 *  DUMP=N   - RESTART FILE WRITTEN EVERY  4320.000 SECONDS
 *  DDMIN=   - MINIMUM TRUST RADIUS  0.000 ANG/RAD
 *  GNORM=   - EXIT WHEN GRADIENT NORM DROPS BELOW .150    
 *  RELSCF   - DEFAULT SCF CRITERION MULTIPLIED BY   0.100    
 *             (DEFAULT SCFCRT= 0.00010)
 *  SYBYL    - OUTPUT SYBYL FILE
 *  MULLIK   - THE MULLIKEN ANALYSIS TO BE PERFORMED
 *******************************************************************************
 PM6 T=31535710 DUMP=4320 XYZ EPS=78.40 RSOLV=1.30 MULLIK SYBYL +
 CHARGE=0 RELSCF=0.1 LET DDMIN=0.0 GNORM=0.15
 SJ000001677-2_T001S001I001C02: Geometry optimization step

   ATOM   CHEMICAL          X               Y              Z
  NUMBER   SYMBOL      (ANGSTROMS)     (ANGSTROMS)    (ANGSTROMS)
 
     1       C          0.1020000  *   -0.017000  *    0.008000  *
     2       C         -0.2470000  *   -0.711000  *    1.262000  *
     3       O         -0.4770000  *   -0.076000  *    2.272000  *
     4       C         -0.3170000  *   -2.189000  *    1.275000  *
     5       C         -0.3660000  *   -2.897000  *    2.468000  *
     6       C         -0.4310000  *   -4.282000  *    2.444000  *
     7       C         -0.4460000  *   -4.962000  *    1.241000  *
     8       C         -0.3960000  *   -4.269000  *    0.041000  *
     9       C         -0.3310000  *   -2.882000  *    0.050000  *
    10       C         -0.2760000  *   -2.108000  *   -1.210000  *
    11       O         -0.5280000  *   -2.643000  *   -2.272000  *
    12       C          0.0840000  *   -0.675000  *   -1.163000  *
    13      Br          0.5280000  *    0.236000  *   -2.760000  *
    14       H         -0.3540000  *   -2.371000  *    3.412000  *
    15       H         -0.4690000  *   -4.834000  *    3.371000  *
    16       H         -0.4960000  *   -6.040000  *    1.236000  *
    17       H         -0.4080000  *   -4.805000  *   -0.897000  *
    18       C          0.4770000  *    1.443000  *    0.040000  *
    19       H          1.5540000  *    1.538000  *    0.181000  *
    20       H          0.1910000  *    1.912000  *   -0.901000  *
    21       H         -0.0420000  *    1.933000  *    0.864000  *
 


          CARTESIAN COORDINATES 

    NO.       ATOM         X         Y         Z

     1         C        0.1020   -0.0170    0.0080
     2         C       -0.2470   -0.7110    1.2620
     3         O       -0.4770   -0.0760    2.2720
     4         C       -0.3170   -2.1890    1.2750
     5         C       -0.3660   -2.8970    2.4680
     6         C       -0.4310   -4.2820    2.4440
     7         C       -0.4460   -4.9620    1.2410
     8         C       -0.3960   -4.2690    0.0410
     9         C       -0.3310   -2.8820    0.0500
    10         C       -0.2760   -2.1080   -1.2100
    11         O       -0.5280   -2.6430   -2.2720
    12         C        0.0840   -0.6750   -1.1630
    13        Br        0.5280    0.2360   -2.7600
    14         H       -0.3540   -2.3710    3.4120
    15         H       -0.4690   -4.8340    3.3710
    16         H       -0.4960   -6.0400    1.2360
    17         H       -0.4080   -4.8050   -0.8970
    18         C        0.4770    1.4430    0.0400
    19         H        1.5540    1.5380    0.1810
    20         H        0.1910    1.9120   -0.9010
    21         H       -0.0420    1.9330    0.8640

 General Reference for PM6:
 "Optimization of Parameters for Semiempirical Methods V: Modification of NDDO Approximations
 and Application to 70 Elements", J. J. P. Stewart, J. Mol. Mod., 13, 1173-1213 (2007)
 URL: http://www.springerlink.com/content/ar33482301010477/fulltext.pdf

           Empirical Formula: C11 H7 O2 Br  =    21 atoms



      MOLECULAR POINT GROUP   :   C1  


      RHF CALCULATION, NO. OF DOUBLY OCCUPIED LEVELS =   35

      Geometry optimization using EF
  SCF CRITERION =    0.1000E-04

          DIAGONAL MATRIX USED AS START HESSIAN

 CYCLE:     1 TIME:   0.064 TIME LEFT: 16.53W  GRAD.:    80.520 HEAT:-28.09900
 CYCLE:     2 TIME:   0.040 TIME LEFT: 16.53W  GRAD.:   279.949 HEAT:-14.87077
 CYCLE:     3 TIME:   0.040 TIME LEFT: 16.53W  GRAD.:   191.780 HEAT:-22.55714
 CYCLE:     4 TIME:   0.040 TIME LEFT: 16.53W  GRAD.:   335.265 HEAT:-13.46122
 CYCLE:     5 TIME:   0.039 TIME LEFT: 16.53W  GRAD.:   352.357 HEAT:-10.09778
 CYCLE:     6 TIME:   0.040 TIME LEFT: 16.53W  GRAD.:   265.209 HEAT:-19.11353
 CYCLE:     7 TIME:   0.039 TIME LEFT: 16.53W  GRAD.:   230.308 HEAT:-19.84942
 CYCLE:     8 TIME:   0.040 TIME LEFT: 16.53W  GRAD.:   261.854 HEAT:-18.03371
 CYCLE:     9 TIME:   0.040 TIME LEFT: 16.53W  GRAD.:   269.757 HEAT:-16.99741
 CYCLE:    10 TIME:   0.040 TIME LEFT: 16.53W  GRAD.:   229.599 HEAT:-21.37528
 CYCLE:    11 TIME:   0.039 TIME LEFT: 16.53W  GRAD.:   302.850 HEAT:-15.00308
 CYCLE:    12 TIME:   0.039 TIME LEFT: 16.53W  GRAD.:   228.530 HEAT:-21.21455
 CYCLE:    13 TIME:   0.039 TIME LEFT: 16.53W  GRAD.:   300.729 HEAT:-13.22078
 CYCLE:    14 TIME:   0.039 TIME LEFT: 16.53W  GRAD.:   292.190 HEAT:-14.59762
 CYCLE:    15 TIME:   0.040 TIME LEFT: 16.53W  GRAD.:   239.087 HEAT:-23.19889
 CYCLE:    16 TIME:   0.039 TIME LEFT: 16.53W  GRAD.:   289.701 HEAT:-15.28122
 CYCLE:    17 TIME:   0.040 TIME LEFT: 16.53W  GRAD.:   285.563 HEAT:-16.31794
 CYCLE:    18 TIME:   0.039 TIME LEFT: 16.53W  GRAD.:   212.508 HEAT:-21.89242
 CYCLE:    19 TIME:   0.040 TIME LEFT: 16.53W  GRAD.:   377.256 HEAT:-11.93537
 CYCLE:    20 TIME:   0.039 TIME LEFT: 16.53W  GRAD.:   206.595 HEAT:-21.98492
 CYCLE:    21 TIME:   0.040 TIME LEFT: 16.53W  GRAD.:   219.083 HEAT:-22.26987
 CYCLE:    22 TIME:   0.039 TIME LEFT: 16.53W  GRAD.:   237.945 HEAT:-21.61977
 CYCLE:    23 TIME:   0.042 TIME LEFT: 16.53W  GRAD.:   134.380 HEAT:-28.04869
 CYCLE:    24 TIME:   0.040 TIME LEFT: 16.53W  GRAD.:   298.922 HEAT:-13.93750
 CYCLE:    25 TIME:   0.039 TIME LEFT: 16.53W  GRAD.:   232.133 HEAT:-19.85771
 CYCLE:    26 TIME:   0.039 TIME LEFT: 16.53W  GRAD.:   219.655 HEAT:-23.41685
 CYCLE:    27 TIME:   0.042 TIME LEFT: 16.53W  GRAD.:   128.130 HEAT:-27.70876
 CYCLE:    28 TIME:   0.039 TIME LEFT: 16.53W  GRAD.:   207.616 HEAT:-22.48075
 CYCLE:    29 TIME:   0.040 TIME LEFT: 16.53W  GRAD.:    61.171 HEAT:-32.45174
 CYCLE:    30 TIME:   0.038 TIME LEFT: 16.53W  GRAD.:   156.292 HEAT:-25.45856
 CYCLE:    31 TIME:   0.041 TIME LEFT: 16.53W  GRAD.:    54.314 HEAT:-32.78368
 CYCLE:    32 TIME:   0.038 TIME LEFT: 16.53W  GRAD.:   194.027 HEAT:-20.29778
 CYCLE:    33 TIME:   0.040 TIME LEFT: 16.53W  GRAD.:    16.868 HEAT:-33.71027
 CYCLE:    34 TIME:   0.039 TIME LEFT: 16.53W  GRAD.:    42.776 HEAT:-32.93388
 CYCLE:    35 TIME:   0.037 TIME LEFT: 16.53W  GRAD.:    17.011 HEAT:-33.72822
 CYCLE:    36 TIME:   0.037 TIME LEFT: 16.53W  GRAD.:    43.803 HEAT:-32.86613
 CYCLE:    37 TIME:   0.037 TIME LEFT: 16.53W  GRAD.:    12.329 HEAT:-33.78295
 CYCLE:    38 TIME:   0.039 TIME LEFT: 16.53W  GRAD.:    53.107 HEAT:-32.67013
 CYCLE:    39 TIME:   0.038 TIME LEFT: 16.53W  GRAD.:     7.232 HEAT:-33.81787
 CYCLE:    40 TIME:   0.036 TIME LEFT: 16.53W  GRAD.:    22.137 HEAT:-33.56767
 CYCLE:    41 TIME:   0.036 TIME LEFT: 16.53W  GRAD.:     1.788 HEAT:-33.85842
 CYCLE:    42 TIME:   0.036 TIME LEFT: 16.53W  GRAD.:     5.189 HEAT:-33.84123
 CYCLE:    43 TIME:   0.035 TIME LEFT: 16.53W  GRAD.:     1.744 HEAT:-33.86676
 CYCLE:    44 TIME:   0.036 TIME LEFT: 16.53W  GRAD.:     5.285 HEAT:-33.85075
 CYCLE:    45 TIME:   0.035 TIME LEFT: 16.53W  GRAD.:     1.598 HEAT:-33.86724
 CYCLE:    46 TIME:   0.037 TIME LEFT: 16.53W  GRAD.:     2.696 HEAT:-33.88926
 CYCLE:    47 TIME:   0.036 TIME LEFT: 16.53W  GRAD.:     1.811 HEAT:-33.89779
 CYCLE:    48 TIME:   0.038 TIME LEFT: 16.53W  GRAD.:     4.412 HEAT:-33.92868
 CYCLE:    49 TIME:   0.036 TIME LEFT: 16.53W  GRAD.:     4.981 HEAT:-33.94975
 CYCLE:    50 TIME:   0.036 TIME LEFT: 16.53W  GRAD.:     2.899 HEAT:-33.95597
 CYCLE:    51 TIME:   0.036 TIME LEFT: 16.53W  GRAD.:     2.620 HEAT:-33.98808
 CYCLE:    52 TIME:   0.039 TIME LEFT: 16.53W  GRAD.:     9.457 HEAT:-34.05241
 CYCLE:    53 TIME:   0.036 TIME LEFT: 16.53W  GRAD.:     3.898 HEAT:-34.06273
 CYCLE:    54 TIME:   0.037 TIME LEFT: 16.53W  GRAD.:     3.354 HEAT:-34.10942
 CYCLE:    55 TIME:   0.038 TIME LEFT: 16.53W  GRAD.:    14.548 HEAT:-33.99042
 CYCLE:    56 TIME:   0.037 TIME LEFT: 16.53W  GRAD.:     3.373 HEAT:-34.12984
 CYCLE:    57 TIME:   0.036 TIME LEFT: 16.53W  GRAD.:     2.760 HEAT:-34.16258
 CYCLE:    58 TIME:   0.037 TIME LEFT: 16.53W  GRAD.:     1.743 HEAT:-34.17234
 CYCLE:    59 TIME:   0.037 TIME LEFT: 16.53W  GRAD.:     2.853 HEAT:-34.12269
 CYCLE:    60 TIME:   0.035 TIME LEFT: 16.53W  GRAD.:     1.898 HEAT:-34.12620
 CYCLE:    61 TIME:   0.038 TIME LEFT: 16.53W  GRAD.:     1.057 HEAT:-34.13692
 CYCLE:    62 TIME:   0.039 TIME LEFT: 16.53W  GRAD.:     1.123 HEAT:-34.14461
 CYCLE:    63 TIME:   0.038 TIME LEFT: 16.53W  GRAD.:     1.230 HEAT:-34.17172
 CYCLE:    64 TIME:   0.037 TIME LEFT: 16.53W  GRAD.:     1.004 HEAT:-34.17039
 CYCLE:    65 TIME:   0.036 TIME LEFT: 16.53W  GRAD.:     0.879 HEAT:-34.18153
 CYCLE:    66 TIME:   0.038 TIME LEFT: 16.53W  GRAD.:     0.699 HEAT:-34.17643
 CYCLE:    67 TIME:   0.038 TIME LEFT: 16.53W  GRAD.:     1.006 HEAT:-34.17932
 CYCLE:    68 TIME:   0.037 TIME LEFT: 16.53W  GRAD.:     0.669 HEAT:-34.17098
 CYCLE:    69 TIME:   0.037 TIME LEFT: 16.53W  GRAD.:     0.662 HEAT:-34.19596
 CYCLE:    70 TIME:   0.038 TIME LEFT: 16.53W  GRAD.:     0.506 HEAT:-34.18853
 CYCLE:    71 TIME:   0.041 TIME LEFT: 16.53W  GRAD.:     0.412 HEAT:-34.19536
 CYCLE:    72 TIME:   0.041 TIME LEFT: 16.53W  GRAD.:     0.404 HEAT:-34.19399
 CYCLE:    73 TIME:   0.041 TIME LEFT: 16.53W  GRAD.:     0.521 HEAT:-34.18951
 CYCLE:    74 TIME:   0.042 TIME LEFT: 16.53W  GRAD.:     0.501 HEAT:-34.19401
 CYCLE:    75 TIME:   0.037 TIME LEFT: 16.53W  GRAD.:     0.452 HEAT:-34.19399
 CYCLE:    76 TIME:   0.037 TIME LEFT: 16.53W  GRAD.:     0.545 HEAT:-34.18717
 CYCLE:    77 TIME:   0.037 TIME LEFT: 16.53W  GRAD.:     0.479 HEAT:-34.18649
 CYCLE:    78 TIME:   0.037 TIME LEFT: 16.53W  GRAD.:     0.523 HEAT:-34.19749
 CYCLE:    79 TIME:   0.037 TIME LEFT: 16.53W  GRAD.:     0.519 HEAT:-34.19828
 CYCLE:    80 TIME:   0.038 TIME LEFT: 16.53W  GRAD.:     1.534 HEAT:-34.20145
 CYCLE:    81 TIME:   0.036 TIME LEFT: 16.53W  GRAD.:     0.649 HEAT:-34.20349
 CYCLE:    82 TIME:   0.037 TIME LEFT: 16.53W  GRAD.:     0.636 HEAT:-34.20775
 CYCLE:    83 TIME:   0.038 TIME LEFT: 16.53W  GRAD.:     0.800 HEAT:-34.20796
 CYCLE:    84 TIME:   0.039 TIME LEFT: 16.53W  GRAD.:     0.754 HEAT:-34.26158
 CYCLE:    85 TIME:   0.036 TIME LEFT: 16.53W  GRAD.:     0.458 HEAT:-34.27073
 CYCLE:    86 TIME:   0.038 TIME LEFT: 16.53W  GRAD.:     0.378 HEAT:-34.28456
 CYCLE:    87 TIME:   0.036 TIME LEFT: 16.53W  GRAD.:     0.428 HEAT:-34.27565
 CYCLE:    88 TIME:   0.037 TIME LEFT: 16.53W  GRAD.:     0.383 HEAT:-34.27868
 CYCLE:    89 TIME:   0.036 TIME LEFT: 16.53W  GRAD.:     0.380 HEAT:-34.28895
 CYCLE:    90 TIME:   0.036 TIME LEFT: 16.53W  GRAD.:     0.645 HEAT:-34.29696
 CYCLE:    91 TIME:   0.037 TIME LEFT: 16.53W  GRAD.:     0.668 HEAT:-34.28467
 CYCLE:    92 TIME:   0.037 TIME LEFT: 16.53W  GRAD.:     0.638 HEAT:-34.29729
 CYCLE:    93 TIME:   0.037 TIME LEFT: 16.53W  GRAD.:     0.598 HEAT:-34.29406
 CYCLE:    94 TIME:   0.036 TIME LEFT: 16.53W  GRAD.:     0.652 HEAT:-34.29812
 CYCLE:    95 TIME:   0.037 TIME LEFT: 16.53W  GRAD.:     0.414 HEAT:-34.30622
 CYCLE:    96 TIME:   0.036 TIME LEFT: 16.53W  GRAD.:     0.340 HEAT:-34.29996
 CYCLE:    97 TIME:   0.038 TIME LEFT: 16.53W  GRAD.:     0.941 HEAT:-34.28594
 CYCLE:    98 TIME:   0.037 TIME LEFT: 16.53W  GRAD.:     0.223 HEAT:-34.29943
 CYCLE:    99 TIME:   0.035 TIME LEFT: 16.53W  GRAD.:     0.149 HEAT:-34.29889

     RMS GRADIENT =  0.14871  IS LESS THAN CUTOFF =  0.15000



 -------------------------------------------------------------------------------
 PM6 T=31535710 DUMP=4320 XYZ EPS=78.40 RSOLV=1.30 MULLIK SYBYL +
 CHARGE=0 RELSCF=0.1 LET DDMIN=0.0 GNORM=0.15
 SJ000001677-2_T001S001I001C02: Geometry optimization step



     GEOMETRY OPTIMISED USING EIGENVECTOR FOLLOWING (EF).     
     SCF FIELD WAS ACHIEVED                                   


                               PM6     CALCULATION
                                                       MOPAC2009 (Version: 9.015L)
                                                       Tue Sep  6 16:25:45 2011




          FINAL HEAT OF FORMATION =        -34.29889 KCAL =    -143.50655 KJ
          VAN DER WAALS AREA      =        214.21 SQUARE ANGSTROMS


          TOTAL ENERGY            =      -2252.30476 EV
          ELECTRONIC ENERGY       =      -3030.23192 EV  POINT GROUP:     C1  
          CORE-CORE REPULSION     =        777.92716 EV
          DIELECTRIC ENERGY       =         -0.52095 EV
          COSMO AREA              =        214.21 SQUARE ANGSTROMS
          COSMO VOLUME            =        228.29 CUBIC ANGSTROMS

          IONIZATION POTENTIAL    =         10.414413 EV
          HOMO LUMO ENERGIES (EV) =        -10.414 -2.103
          NO. OF FILLED LEVELS    =         35
          MOLECULAR WEIGHT        =        251.079

          MOLECULAR DIMENSIONS (Angstroms)

            Atom       Atom       Distance
            H    16    H    19     8.14144
            H    14    O    11     5.71127
            H    16    H    20     1.75300


          SCF CALCULATIONS        =        101
          COMPUTATION TIME        =          3.821 SECONDS




   ATOM   CHEMICAL          X               Y              Z
  NUMBER   SYMBOL      (ANGSTROMS)     (ANGSTROMS)    (ANGSTROMS)
 
     1       C          0.1106336  *    0.016201  *    0.002578  *
     2       C         -0.2110549  *   -0.691150  *    1.308846  *
     3       O         -0.3801320  *   -0.053030  *    2.329511  *
     4       C         -0.3068855  *   -2.174799  *    1.271805  *
     5       C         -0.4042411  *   -2.885147  *    2.469211  *
     6       C         -0.4990471  *   -4.287071  *    2.448671  *
     7       C         -0.5001709  *   -4.968944  *    1.235706  *
     8       C         -0.4060465  *   -4.258663  *    0.026416  *
     9       C         -0.3073997  *   -2.867125  *    0.041029  *
    10       C         -0.2053422  *   -2.128079  *   -1.250037  *
    11       O         -0.3557745  *   -2.681189  *   -2.323840  *
    12       C          0.0988499  *   -0.671622  *   -1.152335  *
    13      Br          0.4808992  *    0.181914  *   -2.805964  *
    14       H         -0.4059472  *   -2.350083  *    3.425332  *
    15       H         -0.5732935  *   -4.836898  *    3.392043  *
    16       H         -0.5746724  *   -6.060679  *    1.216080  *
    17       H         -0.4093680  *   -4.798702  *   -0.927037  *
    18       C          0.4169827  *    1.458520  *    0.105015  *
    19       H          1.4353376  *    1.689488  *   -0.259641  *
    20       H         -0.2708402  *    2.072265  *   -0.506135  *
    21       H          0.3523612  *    1.845258  *    1.136290  *

           Empirical Formula: C11 H7 O2 Br  =    21 atoms



      MOLECULAR POINT GROUP   :   C1  


                  EIGENVALUES  
 -32.67881 -32.53247 -30.74722 -29.81021 -27.51740 -26.91269 -26.78563 -25.44400
 -24.15381 -22.55223 -21.67102 -20.94544 -18.80354 -18.18447 -17.11671 -16.54274
 -16.03933 -15.91465 -15.51634 -15.43273 -15.12450 -14.62580 -14.54361 -14.26182
 -13.68675 -13.49806 -13.18506 -12.73584 -12.50049 -11.48458 -11.25980 -10.89702
 -10.68459 -10.42792 -10.41441  -2.10301  -0.76076  -0.66716  -0.51415   0.36089
   0.95941   1.83712   2.02232   2.16736   2.64093   3.06200   3.10896   3.57493
   3.75341   3.88536   4.18762   4.23286   4.27238   4.44101   4.49724   4.90015
   5.33217   5.37697   5.42253   5.69370   5.71062   5.79820   6.36331 112.65605
 112.79780 112.84075 112.84691 112.94629


              NET ATOMIC CHARGES AND DIPOLE CONTRIBUTIONS

  ATOM NO.   TYPE          CHARGE      No. of ELECS.   s-Pop       p-Pop       d-Pop       
    1          C           0.076117        3.9239     1.12587     2.79801
    2          C           0.525023        3.4750     1.11474     2.36024
    3          O          -0.497911        6.4979     1.85262     4.64529
    4          C          -0.153162        4.1532     1.10445     3.04871
    5          C          -0.074572        4.0746     1.11545     2.95912
    6          C          -0.124340        4.1243     1.11651     3.00783
    7          C          -0.121087        4.1211     1.11665     3.00443
    8          C          -0.077299        4.0773     1.11547     2.96183
    9          C          -0.154282        4.1543     1.10598     3.04831
   10          C           0.584422        3.4156     1.09567     2.31991
   11          O          -0.525998        6.5260     1.85212     4.67388
   12          C          -0.220519        4.2205     1.13445     3.08607
   13         Br          -0.046559        7.0466     1.98732     5.05059     0.00865
   14          H           0.180736        0.8193     0.81926
   15          H           0.178990        0.8210     0.82101
   16          H           0.178561        0.8214     0.82144
   17          H           0.181991        0.8180     0.81801
   18          C          -0.512717        4.5127     1.08283     3.42989
   19          H           0.204569        0.7954     0.79543
   20          H           0.204496        0.7955     0.79550
   21          H           0.193542        0.8065     0.80646
 DIPOLE           X         Y         Z       TOTAL
 POINT-CHG.     0.615    -2.122     4.067     4.628
 HYBRID         0.066     0.459    -0.584     0.746
 SUM            0.680    -1.663     3.483     3.919


          CARTESIAN COORDINATES 

    NO.       ATOM               X         Y         Z

     1         C                  0.1106    0.0162    0.0026
     2         C                 -0.2111   -0.6911    1.3088
     3         O                 -0.3801   -0.0530    2.3295
     4         C                 -0.3069   -2.1748    1.2718
     5         C                 -0.4042   -2.8851    2.4692
     6         C                 -0.4990   -4.2871    2.4487
     7         C                 -0.5002   -4.9689    1.2357
     8         C                 -0.4060   -4.2587    0.0264
     9         C                 -0.3074   -2.8671    0.0410
    10         C                 -0.2053   -2.1281   -1.2500
    11         O                 -0.3558   -2.6812   -2.3238
    12         C                  0.0988   -0.6716   -1.1523
    13        Br                  0.4809    0.1819   -2.8060
    14         H                 -0.4059   -2.3501    3.4253
    15         H                 -0.5733   -4.8369    3.3920
    16         H                 -0.5747   -6.0607    1.2161
    17         H                 -0.4094   -4.7987   -0.9270
    18         C                  0.4170    1.4585    0.1050
    19         H                  1.4353    1.6895   -0.2596
    20         H                 -0.2708    2.0723   -0.5061
    21         H                  0.3524    1.8453    1.1363


          ATOMIC ORBITAL ELECTRON POPULATIONS

   1.12587   0.86009   0.97802   0.95990   1.11474   0.63894   0.88009   0.84121
   1.85262   1.45909   1.72669   1.45951   1.10445   1.07267   0.98634   0.98970
   1.11545   0.92340   0.99535   1.04036   1.11651   0.95376   0.99560   1.05847
   1.11665   0.95104   1.08506   0.96833   1.11547   0.92535   0.97575   1.06072
   1.10598   1.07053   1.00126   0.97652   1.09567   0.62976   0.84697   0.84319
   1.85212   1.48348   1.74970   1.44070   1.13445   1.13639   1.01197   0.93772
   1.98732   1.93643   1.80923   1.30493   0.00073   0.00125   0.00320   0.00293
   0.00053   0.81926   0.82101   0.82144   0.81801   1.08283   1.20310   1.00661
   1.22018   0.79543   0.79550   0.80646

           MULLIKEN POPULATION ANALYSIS



        MULLIKEN POPULATIONS AND CHARGES

      NO.  ATOM   POPULATION      CHARGE
        1    C     3.939800      0.060200
        2    C     3.447887      0.552113
        3    O     6.521482     -0.521482
        4    C     4.167520     -0.167520
        5    C     4.117283     -0.117283
        6    C     4.178509     -0.178509
        7    C     4.175061     -0.175061
        8    C     4.120344     -0.120344
        9    C     4.169871     -0.169871
       10    C     3.392703      0.607297
       11    O     6.553102     -0.553102
       12    C     4.398131     -0.398131
       13   Br     6.842182      0.157818
       14    H     0.764393      0.235607
       15    H     0.766394      0.233606
       16    H     0.766936      0.233064
       17    H     0.762835      0.237165
       18    C     4.664496     -0.664496
       19    H     0.748403      0.251597
       20    H     0.748892      0.251108
       21    H     0.753775      0.246225



 TOTAL CPU TIME:             3.83 SECONDS

 == MOPAC DONE ==
 *******************************************************************************
 ** Site#:  958            For non-commercial use only         Version 9.015L **
 *******************************************************************************
 ** Cite this work as: MOPAC2009, James J. P. Stewart, Stewart Computational  **
 ** Chemistry, Version 9.015L web: HTTP://OpenMOPAC.net                       **
 *******************************************************************************
 **                                                                           **
 **                                MOPAC2009                                  **
 **                                                                           **
 *******************************************************************************

                            PM6 CALCULATION RESULTS


 *******************************************************************************
 *  CALCULATION DONE:                                Tue Sep  6 16:25:45 2011  *
 *  PM6      - The PM6 Hamiltonian to be used
 *  GEO-OK   - OVERRIDE INTERATOMIC DISTANCE CHECK
 *
 *
 *
 *                 CHARGE ON SYSTEM =     0
 *
 *
 *
 *  EPS= 78.400
 *  RSOLV=  1.300
 *  OLDGEO   - PREVIOUS GEOMETRY TO BE USED
 *  T=       - A TIME OF 172800.0 SECONDS REQUESTED
 *  DUMP=N   - RESTART FILE WRITTEN EVERY  4320.000 SECONDS
 *  RELSCF   - DEFAULT SCF CRITERION MULTIPLIED BY   0.100    
 *             (DEFAULT SCFCRT= 0.00010)
 *  THERMO   - THERMODYNAMIC QUANTITIES TO BE CALCULATED
 *******************************************************************************
 PM6 DUMP=4320 RELSCF=0.1 THERMO EPS=78.40 RSOLV=1.30 +
 OLDGEO GEO-OK CHARGE=0
 SJ000001677-2_T001S001I001C02: Free energy calculation

   ATOM   CHEMICAL          X               Y              Z
  NUMBER   SYMBOL      (ANGSTROMS)     (ANGSTROMS)    (ANGSTROMS)
 
     1       C          0.1106336  *    0.016201  *    0.002578  *
     2       C         -0.2110549  *   -0.691150  *    1.308846  *
     3       O         -0.3801320  *   -0.053030  *    2.329511  *
     4       C         -0.3068855  *   -2.174799  *    1.271805  *
     5       C         -0.4042411  *   -2.885147  *    2.469211  *
     6       C         -0.4990471  *   -4.287071  *    2.448671  *
     7       C         -0.5001709  *   -4.968944  *    1.235706  *
     8       C         -0.4060465  *   -4.258663  *    0.026416  *
     9       C         -0.3073997  *   -2.867125  *    0.041029  *
    10       C         -0.2053422  *   -2.128079  *   -1.250037  *
    11       O         -0.3557745  *   -2.681189  *   -2.323840  *
    12       C          0.0988499  *   -0.671622  *   -1.152335  *
    13      Br          0.4808992  *    0.181914  *   -2.805964  *
    14       H         -0.4059472  *   -2.350083  *    3.425332  *
    15       H         -0.5732935  *   -4.836898  *    3.392043  *
    16       H         -0.5746724  *   -6.060679  *    1.216080  *
    17       H         -0.4093680  *   -4.798702  *   -0.927037  *
    18       C          0.4169827  *    1.458520  *    0.105015  *
    19       H          1.4353376  *    1.689488  *   -0.259641  *
    20       H         -0.2708402  *    2.072265  *   -0.506135  *
    21       H          0.3523612  *    1.845258  *    1.136290  *
 


          CARTESIAN COORDINATES 

    NO.       ATOM         X         Y         Z

     1         C        0.1106    0.0162    0.0026
     2         C       -0.2111   -0.6911    1.3088
     3         O       -0.3801   -0.0530    2.3295
     4         C       -0.3069   -2.1748    1.2718
     5         C       -0.4042   -2.8851    2.4692
     6         C       -0.4990   -4.2871    2.4487
     7         C       -0.5002   -4.9689    1.2357
     8         C       -0.4060   -4.2587    0.0264
     9         C       -0.3074   -2.8671    0.0410
    10         C       -0.2053   -2.1281   -1.2500
    11         O       -0.3558   -2.6812   -2.3238
    12         C        0.0988   -0.6716   -1.1523
    13        Br        0.4809    0.1819   -2.8060
    14         H       -0.4059   -2.3501    3.4253
    15         H       -0.5733   -4.8369    3.3920
    16         H       -0.5747   -6.0607    1.2161
    17         H       -0.4094   -4.7987   -0.9270
    18         C        0.4170    1.4585    0.1050
    19         H        1.4353    1.6895   -0.2596
    20         H       -0.2708    2.0723   -0.5061
    21         H        0.3524    1.8453    1.1363

 General Reference for PM6:
 "Optimization of Parameters for Semiempirical Methods V: Modification of NDDO Approximations
 and Application to 70 Elements", J. J. P. Stewart, J. Mol. Mod., 13, 1173-1213 (2007)
 URL: http://www.springerlink.com/content/ar33482301010477/fulltext.pdf

           Empirical Formula: C11 H7 O2 Br  =    21 atoms



      MOLECULAR POINT GROUP   :   C1  


      RHF CALCULATION, NO. OF DOUBLY OCCUPIED LEVELS =   35

  SCF CRITERION =    0.1000E-04


          HEAT OF FORMATION =     -34.298877 KCALS/MOLE


          INTERNAL COORDINATE DERIVATIVES

   NUMBER  ATOM       BOND         ANGLE      DIHEDRAL

     1       C
     2       C      0.023711
     3       O     -0.052934     0.000677
     4       C     -0.017883    -0.118164    -0.031838
     5       C     -0.022967     0.073434     0.040376
     6       C      0.058413     0.049276    -0.025520
     7       C     -0.071104    -0.050395     0.010258
     8       C      0.069299     0.003409    -0.009976
     9       C     -0.031054     0.076632     0.018085
    10       C     -0.013220    -0.080292     0.009742
    11       O     -0.022657     0.067207    -0.013247
    12       C      0.143185    -0.062115     0.058605
    13      Br     -0.225540    -0.132138     0.036080
    14       H      0.000785     0.036960    -0.008526
    15       H      0.153101     0.257081    -0.073906
    16       H     -0.011299    -0.009780    -0.032343
    17       H     -0.003866     0.006536     0.014189
    18       C      0.047665     0.009748    -0.007201
    19       H     -0.013226    -0.007706    -0.006568
    20       H     -0.019851     0.059978    -0.018206
    21       H     -0.069807    -0.065551     0.000356


          GRADIENT NORM =   0.53768


          TIME FOR SCF CALCULATION =    0.05

          TIME FOR DERIVATIVES     =    0.03

          MOLECULAR WEIGHT =  251.08



          ROTATIONAL CONSTANTS IN CM(-1)

          A =    0.03348871   B =    0.01187626   C =    0.00882729



           PRINCIPAL MOMENTS OF INERTIA IN UNITS OF 10**(-40)*GRAM-CM**2

          A =      835.8870   B =     2357.0370   C =     3171.1635


          ORIENTATION OF MOLECULE IN FORCE CALCULATION

    NO.       ATOM         X         Y         Z

     1          C      -0.1549    1.4069   -0.1345
     2          C       1.3651    1.4069   -0.1345
     3          O       1.9811    2.4548   -0.1345
     4          C       2.0440    0.0837   -0.1335
     5          C       3.4243    0.0218   -0.3306
     6          C       4.0791   -1.2216   -0.3284
     7          C       3.3542   -2.3920   -0.1259
     8          C       1.9644   -2.3355    0.0768
     9          C       1.3085   -1.1042    0.0714
    10          C      -0.1666   -1.0610    0.2849
    11          O      -0.8002   -2.0470    0.6135
    12          C      -0.8248    0.2589    0.0662
    13         Br      -2.7241    0.2228    0.0879
    14          H       3.9973    0.9423   -0.4878
    15          H       5.1615   -1.2619   -0.4854
    16          H       3.8612   -3.3619   -0.1228
    17          H       1.3970   -3.2590    0.2381
    18          C      -0.8029    2.7165   -0.3573
    19          H      -1.4393    2.7118   -1.2619
    20          H      -1.4682    2.9971    0.4806
    21          H      -0.0829    3.5437   -0.4784


    FIRST DERIVATIVES WILL BE USED IN THE CALCULATION OF SECOND DERIVATIVES

          ESTIMATED TIME TO COMPLETE CALCULATION =       10.08 SECONDS

    FOR POINT-GROUP C1   THERE ARE   1 UNIQUE SYMMETRY FUNCTIONS.

 STEP:   1 TIME =     0.07 SECS, INTEGRAL =      0.07 TIME LEFT: 172799.85
 STEP:   2 TIME =     0.07 SECS, INTEGRAL =      0.15 TIME LEFT: 172799.77
 STEP:   3 TIME =     0.07 SECS, INTEGRAL =      0.22 TIME LEFT: 172799.70
 STEP:   4 TIME =     0.07 SECS, INTEGRAL =      0.29 TIME LEFT: 172799.63
 STEP:   5 TIME =     0.08 SECS, INTEGRAL =      0.37 TIME LEFT: 172799.55
 STEP:   6 TIME =     0.07 SECS, INTEGRAL =      0.44 TIME LEFT: 172799.48
 STEP:   7 TIME =     0.07 SECS, INTEGRAL =      0.51 TIME LEFT: 172799.41
 STEP:   8 TIME =     0.07 SECS, INTEGRAL =      0.58 TIME LEFT: 172799.34
 STEP:   9 TIME =     0.07 SECS, INTEGRAL =      0.65 TIME LEFT: 172799.27
 STEP:  10 TIME =     0.07 SECS, INTEGRAL =      0.73 TIME LEFT: 172799.19
 STEP:  11 TIME =     0.07 SECS, INTEGRAL =      0.80 TIME LEFT: 172799.12
 STEP:  12 TIME =     0.07 SECS, INTEGRAL =      0.88 TIME LEFT: 172799.04
 STEP:  13 TIME =     0.08 SECS, INTEGRAL =      0.95 TIME LEFT: 172798.97
 STEP:  14 TIME =     0.07 SECS, INTEGRAL =      1.03 TIME LEFT: 172798.89
 STEP:  15 TIME =     0.07 SECS, INTEGRAL =      1.10 TIME LEFT: 172798.82
 STEP:  16 TIME =     0.07 SECS, INTEGRAL =      1.17 TIME LEFT: 172798.75
 STEP:  17 TIME =     0.07 SECS, INTEGRAL =      1.24 TIME LEFT: 172798.68
 STEP:  18 TIME =     0.07 SECS, INTEGRAL =      1.32 TIME LEFT: 172798.60
 STEP:  19 TIME =     0.07 SECS, INTEGRAL =      1.39 TIME LEFT: 172798.53
 STEP:  20 TIME =     0.07 SECS, INTEGRAL =      1.47 TIME LEFT: 172798.45
 STEP:  21 TIME =     0.07 SECS, INTEGRAL =      1.54 TIME LEFT: 172798.38
 STEP:  22 TIME =     0.08 SECS, INTEGRAL =      1.62 TIME LEFT: 172798.30
 STEP:  23 TIME =     0.07 SECS, INTEGRAL =      1.69 TIME LEFT: 172798.23
 STEP:  24 TIME =     0.07 SECS, INTEGRAL =      1.76 TIME LEFT: 172798.16
 STEP:  25 TIME =     0.08 SECS, INTEGRAL =      1.84 TIME LEFT: 172798.08
 STEP:  26 TIME =     0.08 SECS, INTEGRAL =      1.92 TIME LEFT: 172798.00
 STEP:  27 TIME =     0.08 SECS, INTEGRAL =      2.00 TIME LEFT: 172797.92
 STEP:  28 TIME =     0.08 SECS, INTEGRAL =      2.08 TIME LEFT: 172797.84
 STEP:  29 TIME =     0.08 SECS, INTEGRAL =      2.17 TIME LEFT: 172797.75
 STEP:  30 TIME =     0.07 SECS, INTEGRAL =      2.24 TIME LEFT: 172797.68
 STEP:  31 TIME =     0.07 SECS, INTEGRAL =      2.31 TIME LEFT: 172797.61
 STEP:  32 TIME =     0.07 SECS, INTEGRAL =      2.39 TIME LEFT: 172797.53
 STEP:  33 TIME =     0.07 SECS, INTEGRAL =      2.46 TIME LEFT: 172797.46
 STEP:  34 TIME =     0.07 SECS, INTEGRAL =      2.53 TIME LEFT: 172797.39
 STEP:  35 TIME =     0.07 SECS, INTEGRAL =      2.60 TIME LEFT: 172797.32
 STEP:  36 TIME =     0.07 SECS, INTEGRAL =      2.68 TIME LEFT: 172797.24
 STEP:  37 TIME =     0.07 SECS, INTEGRAL =      2.75 TIME LEFT: 172797.17
 STEP:  38 TIME =     0.07 SECS, INTEGRAL =      2.81 TIME LEFT: 172797.11
 STEP:  39 TIME =     0.07 SECS, INTEGRAL =      2.88 TIME LEFT: 172797.04
 STEP:  40 TIME =     0.07 SECS, INTEGRAL =      2.95 TIME LEFT: 172796.97
 STEP:  41 TIME =     0.07 SECS, INTEGRAL =      3.02 TIME LEFT: 172796.90
 STEP:  42 TIME =     0.07 SECS, INTEGRAL =      3.09 TIME LEFT: 172796.83
 STEP:  43 TIME =     0.07 SECS, INTEGRAL =      3.16 TIME LEFT: 172796.76
 STEP:  44 TIME =     0.07 SECS, INTEGRAL =      3.23 TIME LEFT: 172796.69
 STEP:  45 TIME =     0.07 SECS, INTEGRAL =      3.30 TIME LEFT: 172796.62
 STEP:  46 TIME =     0.07 SECS, INTEGRAL =      3.37 TIME LEFT: 172796.55
 STEP:  47 TIME =     0.07 SECS, INTEGRAL =      3.43 TIME LEFT: 172796.49
 STEP:  48 TIME =     0.07 SECS, INTEGRAL =      3.50 TIME LEFT: 172796.42
 STEP:  49 TIME =     0.07 SECS, INTEGRAL =      3.57 TIME LEFT: 172796.35
 STEP:  50 TIME =     0.07 SECS, INTEGRAL =      3.64 TIME LEFT: 172796.28
 STEP:  51 TIME =     0.07 SECS, INTEGRAL =      3.71 TIME LEFT: 172796.21
 STEP:  52 TIME =     0.07 SECS, INTEGRAL =      3.78 TIME LEFT: 172796.14
 STEP:  53 TIME =     0.07 SECS, INTEGRAL =      3.85 TIME LEFT: 172796.07
 STEP:  54 TIME =     0.07 SECS, INTEGRAL =      3.93 TIME LEFT: 172795.99
 STEP:  55 TIME =     0.07 SECS, INTEGRAL =      3.99 TIME LEFT: 172795.93
 STEP:  56 TIME =     0.07 SECS, INTEGRAL =      4.06 TIME LEFT: 172795.86
 STEP:  57 TIME =     0.07 SECS, INTEGRAL =      4.13 TIME LEFT: 172795.79
 STEP:  58 TIME =     0.07 SECS, INTEGRAL =      4.20 TIME LEFT: 172795.72
 STEP:  59 TIME =     0.07 SECS, INTEGRAL =      4.27 TIME LEFT: 172795.65
 STEP:  60 TIME =     0.07 SECS, INTEGRAL =      4.34 TIME LEFT: 172795.58
 STEP:  61 TIME =     0.07 SECS, INTEGRAL =      4.41 TIME LEFT: 172795.51
 STEP:  62 TIME =     0.07 SECS, INTEGRAL =      4.48 TIME LEFT: 172795.44
 STEP:  63 TIME =     0.07 SECS, INTEGRAL =      4.54 TIME LEFT: 172795.38

(To convert to Hartree/Bohr^2, multiply by (10^(-21) x N x a0^2)/(4.184 x 627.51) = 0.0642)


           FORCE MATRIX IN MILLIDYNES/ANGSTROM


                  C  1       C  2       O  3       C  4       C  5       C  6
 ------------------------------------------------------------------------------
     C    1  16.087090
     C    2   3.015830  16.058122
     O    3   1.375858  10.837618  12.884869
     C    4   0.656559   3.402440   1.425374  15.026766
     C    5   0.041819   0.864301   0.084563   5.533133  14.001770
     C    6   0.033366   0.134932   0.042110   2.260077   5.208129  14.018875
     C    7   0.026753   0.207926   0.080273   1.593688   2.324922   5.751969
     C    8   0.029716   0.363769   0.117256   2.164978   1.513301   2.320538
     C    9   0.066452   1.006614   0.099330   4.886658   2.160992   1.595207
     C   10   1.166561   0.650096   0.164227   0.992100   0.359256   0.214561
     O   11   0.130387   0.176044   0.079496   0.114649   0.107363   0.076006
     C   12   8.505748   0.920872   0.074973   0.085386   0.028235   0.019580
    Br   13   0.860773   0.124351   0.076013   0.016517   0.013541   0.010774
     H   14   0.006706   0.090595   0.029023   0.669569   3.441870   0.632587
     H   15   0.003881   0.025862   0.013089   0.085153   0.651238   3.460602
     H   16   0.002981   0.051835   0.020443   0.041864   0.103907   0.656442
     H   17   0.002940   0.028998   0.014548   0.091332   0.020897   0.089738
     C   18   3.938526   0.665597   0.083729   0.058662   0.019689   0.010703
     H   19   0.691480   0.036675   0.010735   0.009543   0.003094   0.002168
     H   20   0.690182   0.036546   0.010502   0.009781   0.002882   0.001904
     H   21   0.671914   0.157582   0.107608   0.046999   0.006193   0.002172


                  C  7       C  8       C  9       C 10       O 11       C 12
 ------------------------------------------------------------------------------
     C    7  13.987203
     C    8   5.178453  13.992669
     C    9   2.261167   5.561147  14.975014
     C   10   0.149890   0.858198   3.275320  16.033755
     O   11   0.057658   0.081327   1.447718  10.641913  12.795160
     C   12   0.035899   0.049748   0.702976   3.315498   1.587395  14.040475
    Br   13   0.011295   0.019010   0.048209   0.639510   0.179142   2.193956
     H   14   0.089467   0.021801   0.093568   0.028143   0.014502   0.004827
     H   15   0.661625   0.102395   0.035665   0.042988   0.015899   0.004567
     H   16   3.461293   0.641400   0.086875   0.027162   0.013872   0.003888
     H   17   0.645608   3.448536   0.654063   0.093950   0.044488   0.010896
     C   18   0.008066   0.008448   0.028554   0.297915   0.091509   1.052519
     H   19   0.002163   0.002686   0.004031   0.049260   0.018578   0.060255
     H   20   0.001919   0.002365   0.005506   0.048694   0.017755   0.059766
     H   21   0.004898   0.007368   0.005919   0.039680   0.011062   0.033285


                 Br 13       H 14       H 15       H 16       H 17       C 18
 ------------------------------------------------------------------------------
    Br   13   3.594676
     H   14   0.005820   4.223156
     H   15   0.004056   0.026497   4.256949
     H   16   0.004432   0.012863   0.030279   4.242577
     H   17   0.005193   0.012598   0.012454   0.027290   4.243217
     C   18   0.100534   0.004310   0.003100   0.003097   0.003503  11.266877
     H   19   0.029142   0.000731   0.000448   0.000616   0.000711   3.337088
     H   20   0.036674   0.000789   0.000485   0.000598   0.000715   3.313614
     H   21   0.006951   0.007271   0.001180   0.001687   0.001476   3.382040


                  H 19       H 20       H 21
 ------------------------------------------
     H   19   4.126677
     H   20   0.425338   4.110960
     H   21   0.415686   0.413118   4.159777


          HEAT OF FORMATION =     -34.298877 KCALS/MOLE

          ZERO POINT ENERGY      88.247 KCAL/MOL

         NOTE: SYSTEM IS NOT A GROUND STATE, THEREFORE ZERO POINT
         ENERGY IS NOT MEANINGFULL. ZERO POINT ENERGY PRINTED
         DOES NOT INCLUDE THE  1 IMAGINARY FREQUENCIES


           NORMAL COORDINATE ANALYSIS (Total motion = 1 Angstrom)


   Root No.       1         2         3         4         5         6         7         8

                 1 A       2 A       3 A       4 A       5 A       6 A       7 A       8 A   

                  -6.5      67.0      96.8     163.4     168.3     230.2     247.4     257.9
  
           1    0.0011    0.0018    0.0002    0.0035   -0.0107    0.0011   -0.0078    0.0011
           2    0.0001    0.0086   -0.0013    0.0006   -0.0428   -0.0002    0.0014   -0.0155
           3   -0.0101    0.0518   -0.0092    0.0245    0.0071    0.0177    0.0212   -0.0255
           4    0.0011    0.0022    0.0007    0.0032   -0.0165    0.0013   -0.0120    0.0098
           5    0.0028    0.0028    0.0011    0.0069   -0.0281   -0.0046    0.0186    0.0079
           6    0.0352   -0.0022   -0.0004    0.0280    0.0040    0.0012   -0.0015   -0.0078
           7    0.0029    0.0040   -0.0027   -0.0006   -0.0276    0.0043   -0.0354   -0.0344
           8    0.0011    0.0021    0.0032    0.0093   -0.0214   -0.0058    0.0318    0.0337
           9    0.1091   -0.0732   -0.0335   -0.0354   -0.0061   -0.0063    0.0005    0.0063
          10   -0.0012   -0.0010    0.0032    0.0033   -0.0057   -0.0009   -0.0124    0.0406
          11    0.0014    0.0009    0.0026    0.0072   -0.0199   -0.0040    0.0129    0.0197
          12   -0.0019    0.0049    0.0285    0.0606    0.0066   -0.0113   -0.0203    0.0095
          13   -0.0068   -0.0034    0.0107   -0.0028   -0.0049   -0.0005   -0.0141    0.0416
          14   -0.0024   -0.0042    0.0055    0.0040    0.0161    0.0022   -0.0105   -0.0229
          15   -0.0372   -0.0107    0.0786    0.0195    0.0015   -0.0113   -0.0154    0.0148
          16   -0.0117   -0.0079    0.0050   -0.0127    0.0252    0.0063   -0.0259    0.0063
          17   -0.0053   -0.0067    0.0026   -0.0013    0.0333    0.0063   -0.0192   -0.0455
          18   -0.0592   -0.0211    0.0431   -0.0500   -0.0084    0.0048    0.0233   -0.0131
          19   -0.0111   -0.0096   -0.0093   -0.0114    0.0473    0.0082   -0.0304   -0.0152
          20   -0.0032   -0.0046   -0.0050   -0.0011    0.0194    0.0055   -0.0167   -0.0315
          21   -0.0454   -0.0161   -0.0520   -0.0450   -0.0119    0.0073    0.0188   -0.0078
          22   -0.0059   -0.0066   -0.0127   -0.0003    0.0448    0.0051   -0.0325   -0.0066
          23    0.0008    0.0003   -0.0064    0.0048   -0.0140   -0.0005   -0.0022    0.0120
          24   -0.0102    0.0032   -0.0752    0.0295   -0.0037   -0.0078   -0.0182    0.0221
          25   -0.0008   -0.0016   -0.0036    0.0039    0.0108   -0.0009   -0.0091    0.0259
          26    0.0032    0.0028   -0.0015    0.0072   -0.0313   -0.0035    0.0088    0.0291
          27    0.0109    0.0146   -0.0202    0.0637    0.0060   -0.0100   -0.0184    0.0108
          28    0.0046    0.0020    0.0000   -0.0011    0.0047   -0.0007    0.0016    0.0207
          29    0.0108    0.0072    0.0022   -0.0013   -0.0435   -0.0004   -0.0107    0.0105
          30    0.0467    0.0363    0.0051    0.0308    0.0111    0.0029    0.0107   -0.0135
          31    0.0122    0.0070    0.0070   -0.0141    0.0130    0.0014    0.0130    0.0576
          32    0.0252    0.0169    0.0095   -0.0191   -0.0433   -0.0014   -0.0240   -0.0086
          33    0.1033    0.0745    0.0394   -0.0476    0.0255    0.0031   -0.0046    0.0003
          34    0.0014    0.0010   -0.0006    0.0045   -0.0048   -0.0037    0.0147   -0.0078
          35    0.0025    0.0043    0.0005    0.0025   -0.0464    0.0022   -0.0081   -0.0126
          36    0.0058    0.0228   -0.0017    0.0381    0.0057    0.0159    0.0347   -0.0360
          37    0.0020    0.0010   -0.0001    0.0045   -0.0085   -0.0077    0.0374   -0.0196
          38   -0.0048   -0.0091   -0.0017   -0.0005    0.0443   -0.0002    0.0088    0.0067
          39   -0.0187   -0.0338    0.0052   -0.0044   -0.0080    0.0007   -0.0042    0.0020
          40   -0.0069   -0.0015    0.0195   -0.0017   -0.0296   -0.0056    0.0007    0.0726
          41   -0.0040   -0.0062    0.0101    0.0046    0.0322    0.0043   -0.0228   -0.0409
          42   -0.0467   -0.0157    0.1376    0.0261    0.0040   -0.0179   -0.0317    0.0270
          43   -0.0156   -0.0098    0.0108   -0.0211    0.0254    0.0080   -0.0216    0.0016
          44   -0.0085   -0.0100    0.0055   -0.0051    0.0581    0.0099   -0.0265   -0.0734
          45   -0.0852   -0.0339    0.0826   -0.1083   -0.0120    0.0162    0.0528   -0.0395
          46   -0.0153   -0.0137   -0.0176   -0.0207    0.0666    0.0127   -0.0332   -0.0437
          47   -0.0053   -0.0067   -0.0093   -0.0057    0.0294    0.0077   -0.0181   -0.0457
          48   -0.0604   -0.0259   -0.1052   -0.0983   -0.0201    0.0205    0.0426   -0.0264
          49   -0.0047   -0.0081   -0.0201    0.0016    0.0749    0.0092   -0.0540   -0.0356
          50    0.0020    0.0020   -0.0109    0.0058   -0.0325   -0.0037    0.0078    0.0323
          51    0.0012    0.0088   -0.1285    0.0426   -0.0052   -0.0121   -0.0324    0.0422
          52   -0.0004    0.0033    0.0016    0.0024   -0.0205    0.0202   -0.0629   -0.0128
          53   -0.0094    0.0199   -0.0041   -0.0100   -0.0468    0.0050   -0.0286   -0.0152
          54   -0.0592    0.1127   -0.0290   -0.0346    0.0095   -0.0048   -0.0011    0.0169
          55    0.0179   -0.0147    0.0098    0.0376   -0.0349    0.2317   -0.0184    0.0146
          56   -0.0372    0.0585   -0.0147   -0.0415   -0.0524    0.0622   -0.0593    0.0192
          57   -0.0719    0.1250   -0.0346   -0.0593    0.0196   -0.1542   -0.0329   -0.0023
          58   -0.0203    0.0225   -0.0062   -0.0325   -0.0045   -0.1860   -0.1164   -0.0423
          59    0.0089   -0.0091    0.0055    0.0108   -0.0414   -0.0780   -0.0596   -0.0665
          60   -0.0807    0.1374   -0.0386   -0.0699    0.0206   -0.1430   -0.0337    0.0110
          61   -0.0050    0.0074    0.0034    0.0019   -0.0250    0.0299   -0.0956   -0.0230
          62   -0.0070    0.0191   -0.0055   -0.0084   -0.0453    0.0326    0.0049    0.0031
          63   -0.0636    0.1254   -0.0308   -0.0301   -0.0089    0.2323    0.0331    0.0794


   Root No.       9        10        11        12        13        14        15        16

                 9 A      10 A      11 A      12 A      13 A      14 A      15 A      16 A   

                 264.6     335.3     366.4     380.7     393.3     407.2     480.5     494.0
  
           1    0.0068   -0.0074    0.0160    0.0223    0.0161   -0.0313    0.0035    0.0207
           2    0.0008   -0.0197   -0.0141   -0.0175   -0.0252    0.0315    0.0093    0.0155
           3    0.0539   -0.0054   -0.0118    0.0122   -0.0420   -0.0248    0.0504   -0.0400
           4    0.0127   -0.0165    0.0188    0.0239    0.0162   -0.0295    0.0035    0.0292
           5    0.0031   -0.0061    0.0239    0.0155    0.0018   -0.0100    0.0188    0.0667
           6    0.0144    0.0035   -0.0026    0.0505   -0.0362    0.0117    0.0298   -0.0290
           7    0.0126   -0.0654    0.1115    0.0054    0.0060    0.0047    0.0043    0.0252
           8    0.0030    0.0255   -0.0307    0.0275    0.0083   -0.0321    0.0199    0.0760
           9   -0.0061    0.0000   -0.0026   -0.0198    0.0134   -0.0035   -0.0084    0.0079
          10    0.0171   -0.0134   -0.0238    0.0131    0.0113   -0.0107   -0.0153   -0.0430
          11    0.0062    0.0070    0.0165    0.0106    0.0053   -0.0062    0.0030    0.0084
          12   -0.0225    0.0024    0.0010    0.0581   -0.0107    0.0463   -0.0190    0.0021
          13    0.0173   -0.0171   -0.0244   -0.0009    0.0080   -0.0225   -0.0193   -0.0489
          14   -0.0077    0.0113    0.0367   -0.0008    0.0046   -0.0083   -0.0067   -0.0258
          15   -0.0275   -0.0056    0.0146   -0.0349   -0.0356   -0.0333   -0.0262    0.0189
          16    0.0132   -0.0226   -0.0472    0.0000    0.0136   -0.0096   -0.0036   -0.0154
          17   -0.0105    0.0087    0.0316   -0.0009    0.0082   -0.0007    0.0002   -0.0125
          18    0.0192   -0.0004   -0.0055   -0.0153    0.0447    0.0191    0.0448   -0.0091
          19    0.0014   -0.0189   -0.0524    0.0041   -0.0128    0.0080    0.0015    0.0413
          20   -0.0037    0.0085    0.0342    0.0079    0.0130   -0.0163   -0.0171   -0.0391
          21    0.0180    0.0092    0.0046    0.0432   -0.0280    0.0070   -0.0431    0.0086
          22   -0.0044   -0.0195   -0.0444   -0.0097   -0.0115    0.0038    0.0124    0.0344
          23    0.0080    0.0028    0.0234    0.0038    0.0181   -0.0272   -0.0094   -0.0297
          24   -0.0293   -0.0017    0.0180   -0.0457   -0.0157   -0.0328    0.0320   -0.0103
          25    0.0068   -0.0123   -0.0267   -0.0025   -0.0013    0.0197    0.0079    0.0031
          26    0.0142    0.0040    0.0276    0.0058    0.0203   -0.0128   -0.0091   -0.0350
          27   -0.0215   -0.0035   -0.0089    0.0066    0.0555    0.0498    0.0092   -0.0060
          28    0.0092   -0.0098   -0.0175   -0.0097   -0.0078    0.0224    0.0047    0.0036
          29    0.0106   -0.0206   -0.0197   -0.0127   -0.0045    0.0208   -0.0096   -0.0295
          30    0.0208    0.0008   -0.0126   -0.0213    0.0465    0.0138   -0.0283    0.0219
          31    0.0337    0.0262    0.0711   -0.0283   -0.0316    0.0559    0.0039   -0.0051
          32   -0.0167   -0.0420   -0.0698    0.0103   -0.0099   -0.0079    0.0029   -0.0322
          33   -0.0147    0.0081    0.0132    0.0128   -0.0118   -0.0134    0.0071    0.0046
          34   -0.0069   -0.0092   -0.0001    0.0032    0.0036   -0.0028    0.0047    0.0370
          35    0.0109   -0.0185   -0.0186   -0.0169   -0.0096    0.0141   -0.0094    0.0083
          36    0.0738   -0.0055   -0.0310   -0.0506    0.0081   -0.0170   -0.0474    0.0260
          37   -0.0234    0.0108   -0.0033   -0.0028   -0.0023    0.0003   -0.0024   -0.0143
          38    0.0001   -0.0005    0.0019   -0.0007   -0.0009    0.0019    0.0002   -0.0008
          39   -0.0056    0.0003    0.0010    0.0033   -0.0005    0.0002    0.0019   -0.0009
          40    0.0230   -0.0163   -0.0264   -0.0081   -0.0009   -0.0401   -0.0214   -0.0385
          41   -0.0154    0.0097    0.0415   -0.0082   -0.0018   -0.0134   -0.0119   -0.0256
          42   -0.0506   -0.0088    0.0385   -0.1058   -0.1057   -0.1258   -0.0675    0.0413
          43    0.0178   -0.0226   -0.0500   -0.0041    0.0250   -0.0054    0.0104   -0.0168
          44   -0.0191    0.0070    0.0170   -0.0067    0.0038    0.0138    0.0218    0.0393
          45    0.0540   -0.0018   -0.0211   -0.0418    0.1264    0.0419    0.1329   -0.0363
          46   -0.0039   -0.0128   -0.0460    0.0127   -0.0314    0.0239   -0.0054    0.0634
          47   -0.0064    0.0113    0.0369    0.0121    0.0028   -0.0074   -0.0200   -0.0254
          48    0.0511    0.0222    0.0024    0.1230   -0.0825    0.0092   -0.1366    0.0315
          49   -0.0189   -0.0229   -0.0524   -0.0217   -0.0165   -0.0101    0.0196    0.0436
          50    0.0125    0.0035    0.0316   -0.0043    0.0144   -0.0325   -0.0045   -0.0370
          51   -0.0515   -0.0057    0.0410   -0.1341   -0.0536   -0.1166    0.0855   -0.0163
          52    0.0153    0.1005   -0.0027    0.0068    0.0132   -0.0230    0.0040    0.0022
          53   -0.0087    0.0321   -0.0243   -0.0311   -0.0210    0.0469    0.0005    0.0190
          54   -0.0231   -0.0065    0.0054   -0.0007    0.0148   -0.0039   -0.0061   -0.0004
          55   -0.0341    0.0850    0.0002    0.0075    0.0006   -0.0242    0.0187   -0.0123
          56   -0.0810    0.0859   -0.0169   -0.0522    0.0249    0.0756   -0.0533    0.0500
          57    0.0112    0.0058    0.0029   -0.0015    0.0244   -0.0021   -0.0178    0.0118
          58    0.0649    0.1435   -0.0120    0.0019    0.0249   -0.0191   -0.0104    0.0158
          59    0.0751    0.0976   -0.0474   -0.0312   -0.0644    0.0349    0.0463   -0.0199
          60   -0.0122    0.0050    0.0068   -0.0043    0.0405    0.0034   -0.0350    0.0243
          61    0.0178    0.1679   -0.0137   -0.0073    0.0081   -0.0105    0.0026   -0.0086
          62   -0.0281   -0.0274   -0.0111   -0.0203   -0.0118    0.0388   -0.0038    0.0317
          63   -0.1366   -0.0219    0.0220   -0.0093    0.0472    0.0146   -0.0422    0.0219


   Root No.      17        18        19        20        21        22        23        24

                17 A      18 A      19 A      20 A      21 A      22 A      23 A      24 A   

                 549.3     628.1     651.3     656.7     697.3     794.6     805.3     820.5
  
           1   -0.0354    0.0287   -0.0236    0.0330    0.0006    0.0129   -0.0477    0.0011
           2    0.0253    0.0028   -0.0460    0.0004   -0.0025    0.0110   -0.0224    0.0011
           3    0.0100   -0.0429   -0.0193    0.0348   -0.0321    0.0337    0.0093    0.0030
           4   -0.0170    0.0277   -0.0375    0.0198    0.0019   -0.0006   -0.0122    0.0010
           5    0.0110   -0.0162    0.0178   -0.0122   -0.0011   -0.0127    0.0401   -0.0022
           6    0.0074    0.0287    0.0123   -0.0286    0.0960   -0.0656   -0.0205   -0.0191
           7    0.0159   -0.0169    0.0211   -0.0162   -0.0015   -0.0091    0.0262   -0.0007
           8   -0.0088    0.0099   -0.0176    0.0086    0.0004   -0.0115    0.0276   -0.0015
           9   -0.0015   -0.0068   -0.0031    0.0068   -0.0224    0.0138    0.0044    0.0038
          10    0.0039   -0.0009   -0.0323   -0.0365   -0.0061    0.0073   -0.0079    0.0036
          11    0.0111   -0.0270    0.0394   -0.0292   -0.0069    0.0070   -0.0039    0.0020
          12   -0.0003    0.0527    0.0174   -0.0351   -0.0438    0.0658    0.0180    0.0227
          13    0.0139   -0.0109   -0.0467   -0.0355    0.0003   -0.0075   -0.0010   -0.0031
          14   -0.0517   -0.0204   -0.0256   -0.0357   -0.0028    0.0032   -0.0379   -0.0010
          15    0.0018   -0.0199    0.0029    0.0232   -0.0052    0.0043    0.0022   -0.0195
          16    0.0664    0.0301   -0.0158    0.0234    0.0037   -0.0126    0.0668   -0.0074
          17   -0.0331    0.0054   -0.0164   -0.0003   -0.0012    0.0004   -0.0010   -0.0025
          18   -0.0066    0.0129    0.0082   -0.0148   -0.0082    0.0076   -0.0103   -0.0284
          19    0.0272   -0.0020    0.0309    0.0151   -0.0006    0.0052   -0.0299   -0.0024
          20   -0.0005    0.0215   -0.0403    0.0138    0.0016   -0.0108    0.0574   -0.0048
          21   -0.0032   -0.0189   -0.0050    0.0086   -0.0052   -0.0077   -0.0035   -0.0240
          22    0.0229   -0.0024    0.0341    0.0031   -0.0018    0.0062   -0.0348   -0.0004
          23    0.0706    0.0044    0.0482    0.0139   -0.0017    0.0148   -0.0454    0.0016
          24   -0.0094    0.0240   -0.0030   -0.0170   -0.0067   -0.0073    0.0065   -0.0169
          25   -0.0343   -0.0390    0.0034   -0.0310   -0.0051   -0.0115    0.0024    0.0029
          26    0.0359   -0.0169    0.0314   -0.0037   -0.0037    0.0014   -0.0244    0.0039
          27    0.0034   -0.0436   -0.0201    0.0526   -0.0292   -0.0692   -0.0117    0.0227
          28   -0.0514   -0.0360    0.0163   -0.0255    0.0129    0.0118    0.0272   -0.0042
          29   -0.0346    0.0213    0.0256    0.0518    0.0220    0.0133    0.0090   -0.0048
          30    0.0040   -0.0287   -0.0104    0.0154    0.0920    0.0752    0.0123   -0.0224
          31   -0.0203    0.0252    0.0056    0.0363   -0.0022   -0.0041    0.0054    0.0009
          32   -0.0566   -0.0056    0.0398    0.0078   -0.0058   -0.0061    0.0200    0.0006
          33    0.0193    0.0052   -0.0095   -0.0132   -0.0223   -0.0148   -0.0096    0.0047
          34   -0.0141   -0.0100   -0.0412   -0.0266    0.0021    0.0177   -0.0284   -0.0008
          35   -0.0026    0.0392   -0.0192    0.0257   -0.0041   -0.0045   -0.0348    0.0027
          36   -0.0204    0.0379    0.0279   -0.0402   -0.0395   -0.0482   -0.0002    0.0080
          37    0.0063    0.0016    0.0069    0.0036   -0.0006   -0.0021    0.0031    0.0001
          38   -0.0001   -0.0014    0.0008   -0.0010    0.0003    0.0000    0.0009   -0.0001
          39    0.0006   -0.0007   -0.0006    0.0008    0.0011    0.0006   -0.0001   -0.0001
          40    0.0174   -0.0479   -0.0308   -0.0573    0.0161   -0.0225   -0.0309    0.0219
          41   -0.0521   -0.0085   -0.0372   -0.0085    0.0100   -0.0093   -0.0190    0.0120
          42   -0.0018   -0.0929   -0.0214    0.0835    0.1277   -0.1235   -0.0114    0.1481
          43    0.0633    0.0338   -0.0129    0.0181    0.0170   -0.0136    0.0632    0.0337
          44   -0.0246    0.0140    0.0413    0.0338    0.0046    0.0132   -0.0307    0.0200
          45   -0.0097    0.0494    0.0106   -0.0431    0.0856   -0.0073    0.0072    0.2511
          46   -0.0392   -0.0187    0.0057    0.0016    0.0137    0.0091   -0.0349    0.0422
          47   -0.0336    0.0115   -0.0489    0.0069    0.0086   -0.0073    0.0487    0.0182
          48    0.0043   -0.0585   -0.0135    0.0319    0.0822    0.0267    0.0221    0.2119
          49    0.0229    0.0345    0.0032    0.0180    0.0142    0.0148    0.0151    0.0158
          50    0.0662   -0.0064    0.0690   -0.0078    0.0074    0.0348   -0.0660    0.0166
          51   -0.0133    0.0922    0.0218   -0.0877    0.1027    0.1455    0.0440    0.1298
          52   -0.0209   -0.0025    0.0237    0.0135   -0.0034    0.0046   -0.0062   -0.0003
          53    0.0473   -0.0081   -0.0445   -0.0307    0.0013    0.0007   -0.0051    0.0005
          54   -0.0085   -0.0010    0.0049    0.0089   -0.0065    0.0124    0.0021    0.0028
          55   -0.0112   -0.0283    0.0185    0.0201   -0.0284    0.0296    0.0150    0.0060
          56    0.0511    0.0133    0.0211   -0.1051    0.0624   -0.0871    0.0507   -0.0168
          57   -0.0144    0.0183    0.0098   -0.0006    0.0156   -0.0113   -0.0110   -0.0032
          58   -0.0222    0.0069    0.0444   -0.0124    0.0207   -0.0296    0.0088   -0.0076
          59    0.0781   -0.0800   -0.0409   -0.0244   -0.0538    0.0420    0.0728    0.0121
          60   -0.0220    0.0351    0.0231   -0.0140    0.0365   -0.0342   -0.0159   -0.0087
          61    0.0036   -0.0384    0.0593   -0.0261   -0.0049   -0.0145    0.0689   -0.0007
          62    0.0258    0.0244   -0.0672   -0.0041    0.0086    0.0081   -0.0631   -0.0007
          63   -0.0143    0.0271    0.0322   -0.0253    0.0355   -0.0386    0.0052   -0.0087


   Root No.      25        26        27        28        29        30        31        32

                25 A      26 A      27 A      28 A      29 A      30 A      31 A      32 A   

                 825.1     916.1     969.5     990.6     998.9    1006.6    1070.5    1106.8
  
           1    0.0304    0.0013   -0.0015   -0.0179    0.0005    0.0027   -0.0183   -0.0205
           2    0.0176    0.0001   -0.0012   -0.0100    0.0001    0.0122   -0.0278   -0.0010
           3   -0.0069   -0.0021   -0.0022    0.0039   -0.0023    0.0648    0.0065   -0.0002
           4   -0.0175   -0.0005    0.0050    0.0599   -0.0023   -0.0035    0.0506   -0.0188
           5   -0.0201    0.0004   -0.0023   -0.0254    0.0008   -0.0002   -0.0176    0.0156
           6    0.0119    0.0115   -0.0043    0.0003   -0.0007   -0.0240   -0.0024   -0.0002
           7   -0.0238   -0.0002    0.0002   -0.0004   -0.0001   -0.0014    0.0039    0.0061
           8   -0.0294    0.0003    0.0009    0.0137   -0.0009   -0.0019    0.0134    0.0052
           9   -0.0023   -0.0022    0.0009    0.0004    0.0001    0.0043    0.0002   -0.0001
          10   -0.0322   -0.0045    0.0032    0.0059   -0.0005    0.0019    0.0028    0.0131
          11    0.0053   -0.0009   -0.0022   -0.0363    0.0014    0.0011   -0.0306   -0.0099
          12   -0.0016   -0.0242    0.0147   -0.0021    0.0067    0.0112    0.0019   -0.0009
          13   -0.0509    0.0055   -0.0086   -0.0049   -0.0029   -0.0004   -0.0101    0.0047
          14   -0.0503    0.0018   -0.0024    0.0058   -0.0046   -0.0001   -0.0116    0.0339
          15    0.0101    0.0396   -0.0524    0.0056   -0.0265   -0.0076    0.0023   -0.0034
          16    0.0339    0.0038    0.0042   -0.0235    0.0082    0.0007   -0.0146   -0.0138
          17   -0.0066    0.0015    0.0032    0.0036    0.0050    0.0001    0.0093   -0.0293
          18   -0.0056    0.0182    0.0389    0.0020    0.0552    0.0035    0.0020    0.0050
          19   -0.0267   -0.0034    0.0046    0.0040   -0.0124    0.0000   -0.0100    0.0137
          20    0.0459   -0.0008    0.0009   -0.0075   -0.0052   -0.0004    0.0023    0.0086
          21    0.0018   -0.0203    0.0223   -0.0038   -0.0679   -0.0011    0.0007   -0.0039
          22   -0.0206   -0.0066   -0.0058    0.0081    0.0072    0.0000    0.0093   -0.0028
          23    0.0461   -0.0045   -0.0008    0.0320    0.0032   -0.0005    0.0209    0.0271
          24   -0.0006   -0.0431   -0.0407   -0.0006    0.0408    0.0000   -0.0020   -0.0027
          25    0.0037    0.0045    0.0003   -0.0245   -0.0015   -0.0008    0.0036   -0.0463
          26    0.0198    0.0024    0.0003   -0.0016    0.0014   -0.0004    0.0063   -0.0334
          27    0.0046    0.0273    0.0124    0.0037   -0.0101   -0.0016   -0.0024    0.0104
          28    0.0708   -0.0021    0.0001    0.0053   -0.0001   -0.0014    0.0377    0.0003
          29   -0.0354   -0.0031   -0.0003    0.0095    0.0002    0.0002   -0.0174    0.0131
          30   -0.0199   -0.0144   -0.0051   -0.0029    0.0027   -0.0005    0.0004   -0.0027
          31    0.0028    0.0005    0.0007    0.0078   -0.0002    0.0002   -0.0027    0.0113
          32    0.0227    0.0002    0.0012    0.0138   -0.0003   -0.0004    0.0105    0.0113
          33   -0.0020    0.0026    0.0004   -0.0044   -0.0002    0.0004   -0.0025   -0.0046
          34    0.1224   -0.0013    0.0004    0.0215    0.0014    0.0026   -0.0507    0.0232
          35   -0.0230    0.0025   -0.0013   -0.0266    0.0003    0.0006   -0.0397   -0.0248
          36    0.0115    0.0056    0.0021    0.0040   -0.0004   -0.0110    0.0083    0.0040
          37   -0.0117    0.0001    0.0000   -0.0008   -0.0001   -0.0001    0.0022   -0.0006
          38    0.0004   -0.0001    0.0000    0.0001    0.0000    0.0000    0.0006    0.0001
          39   -0.0001    0.0000   -0.0001    0.0000    0.0000    0.0002   -0.0001    0.0000
          40   -0.0750   -0.0299    0.0293   -0.0292    0.0126    0.0057   -0.0621    0.0773
          41   -0.0268   -0.0187    0.0229    0.0156    0.0060    0.0025    0.0232   -0.0169
          42    0.0291   -0.2088    0.2338   -0.0239    0.0925    0.0303    0.0085   -0.0092
          43    0.0309   -0.0180   -0.0280   -0.0207   -0.0309   -0.0014   -0.0145   -0.0142
          44    0.0185   -0.0143   -0.0096    0.0247   -0.0315   -0.0020    0.0261   -0.0819
          45   -0.0003   -0.1268   -0.1810    0.0060   -0.2029   -0.0105   -0.0021    0.0076
          46   -0.0967    0.0316   -0.0251   -0.0064    0.0665    0.0017   -0.0196   -0.0983
          47    0.0074    0.0171   -0.0139   -0.0113    0.0346    0.0005   -0.0019   -0.0509
          48    0.0075    0.1440   -0.1154    0.0208    0.2744    0.0034    0.0049    0.0275
          49   -0.0335    0.0296    0.0225    0.0032   -0.0191    0.0014   -0.0311    0.2134
          50    0.0497    0.0215    0.0207    0.0294   -0.0135   -0.0009    0.0435   -0.1104
          51   -0.0131    0.2375    0.1901   -0.0174   -0.1551    0.0024   -0.0043   -0.0164
          52    0.0087    0.0013   -0.0040   -0.0466    0.0011   -0.0012    0.0158    0.0190
          53    0.0048   -0.0002    0.0009   -0.0016   -0.0001   -0.0142    0.0614    0.0027
          54   -0.0017   -0.0040    0.0042   -0.0016    0.0031   -0.0729   -0.0122   -0.0002
          55    0.0007   -0.0078    0.0074    0.0040    0.0057   -0.1245   -0.0556   -0.0162
          56   -0.0229    0.0127   -0.0045    0.1597   -0.0146    0.2542   -0.0670   -0.0412
          57    0.0032    0.0039   -0.0048   -0.0253   -0.0017    0.0473    0.0326    0.0180
          58    0.0040    0.0080   -0.0085    0.0089   -0.0058    0.1397   -0.0479   -0.0158
          59   -0.0345   -0.0191    0.0264    0.1641    0.0060   -0.2199   -0.1009   -0.0488
          60    0.0093    0.0100   -0.0113   -0.0257   -0.0058    0.1452    0.0002   -0.0033
          61   -0.0267   -0.0056    0.0114    0.1350   -0.0011    0.0012   -0.1526   -0.0392
          62    0.0336    0.0067   -0.0124   -0.1355    0.0002    0.0195    0.1750    0.0447
          63   -0.0030    0.0083   -0.0073    0.0258   -0.0067    0.1558   -0.0285   -0.0085


   Root No.      33        34        35        36        37        38        39        40

                33 A      34 A      35 A      36 A      37 A      38 A      39 A      40 A   

                1120.5    1132.2    1156.8    1184.3    1206.1    1229.7    1244.6    1253.5
  
           1    0.0189    0.0015   -0.0286   -0.0051   -0.0023   -0.0176    0.0100    0.0142
           2   -0.0067   -0.0033    0.0018   -0.0086    0.0017    0.0140    0.0111    0.0003
           3    0.0016    0.0007    0.0004   -0.0006   -0.0082   -0.0022   -0.0023   -0.0005
           4    0.0242    0.0027    0.0045   -0.0062    0.0018   -0.0070   -0.0323   -0.0258
           5   -0.0227   -0.0046    0.0007    0.0064   -0.0015    0.0097    0.0210    0.0147
           6    0.0006   -0.0002    0.0007    0.0005    0.0011    0.0003   -0.0006    0.0007
           7   -0.0045    0.0017    0.0010    0.0020    0.0002    0.0010    0.0049    0.0017
           8   -0.0086    0.0000   -0.0007    0.0009   -0.0001    0.0035    0.0105    0.0022
           9   -0.0001   -0.0001   -0.0001   -0.0002   -0.0005    0.0000    0.0001   -0.0001
          10    0.0195    0.0233    0.0083    0.0060   -0.0006   -0.0052    0.0023    0.0341
          11    0.0432    0.0165    0.0033   -0.0080    0.0004   -0.0290   -0.0533   -0.0180
          12   -0.0060   -0.0048   -0.0014   -0.0003   -0.0004    0.0030    0.0039   -0.0032
          13   -0.0364   -0.0245    0.0040    0.0047   -0.0005    0.0305    0.0029    0.0133
          14   -0.0200    0.0460   -0.0136   -0.0016   -0.0009   -0.0269    0.0137   -0.0129
          15    0.0064    0.0003    0.0002   -0.0007    0.0002   -0.0025   -0.0014   -0.0006
          16   -0.0244    0.0387   -0.0019   -0.0008   -0.0006   -0.0127   -0.0058   -0.0070
          17   -0.0199   -0.0239    0.0054    0.0003    0.0008    0.0337    0.0001   -0.0156
          18    0.0058   -0.0020   -0.0006   -0.0001    0.0001    0.0003    0.0008    0.0018
          19    0.0111    0.0418    0.0127    0.0063   -0.0015   -0.0361    0.0080   -0.0044
          20    0.0408   -0.0236   -0.0032   -0.0037    0.0009   -0.0084    0.0137   -0.0154
          21   -0.0052   -0.0091   -0.0002    0.0000    0.0001    0.0041   -0.0025    0.0031
          22   -0.0204   -0.0544   -0.0161   -0.0075    0.0017    0.0323    0.0087   -0.0249
          23    0.0047   -0.0044   -0.0133   -0.0011    0.0001   -0.0101    0.0222    0.0100
          24    0.0029    0.0106    0.0032    0.0011   -0.0001   -0.0042   -0.0024    0.0023
          25    0.0209    0.0004   -0.0167   -0.0185    0.0037    0.0074   -0.0373   -0.0308
          26   -0.0091   -0.0259    0.0074    0.0008    0.0002    0.0193   -0.0342    0.0208
          27   -0.0025    0.0023    0.0023    0.0028   -0.0006   -0.0029    0.0080    0.0023
          28    0.0116    0.0000   -0.0306   -0.0049    0.0003   -0.0050    0.0534    0.0321
          29   -0.0119    0.0031    0.0268    0.0071   -0.0006   -0.0005   -0.0335   -0.0214
          30    0.0017   -0.0010   -0.0029   -0.0011    0.0005    0.0005    0.0008   -0.0002
          31   -0.0057   -0.0001    0.0049    0.0039   -0.0008   -0.0011    0.0011   -0.0004
          32   -0.0064   -0.0018    0.0049    0.0052   -0.0010   -0.0014    0.0017    0.0007
          33    0.0021    0.0005   -0.0016   -0.0018    0.0003    0.0006   -0.0006   -0.0001
          34   -0.0288   -0.0036    0.0358    0.0100   -0.0011    0.0067   -0.0246   -0.0109
          35    0.0153   -0.0028   -0.0343   -0.0160    0.0020    0.0052    0.0347    0.0173
          36   -0.0022    0.0006    0.0050    0.0028    0.0005   -0.0011   -0.0053   -0.0024
          37    0.0009    0.0002   -0.0007   -0.0002    0.0001   -0.0001    0.0001   -0.0001
          38   -0.0001    0.0000    0.0001    0.0000    0.0000    0.0000    0.0002    0.0000
          39    0.0000    0.0000    0.0000    0.0000   -0.0001    0.0000    0.0000    0.0000
          40    0.1851   -0.0557    0.1026    0.0399   -0.0008    0.0750    0.2057   -0.1526
          41   -0.1578    0.0680   -0.0751   -0.0241   -0.0006   -0.0559   -0.1216    0.0947
          42   -0.0116    0.0011   -0.0068   -0.0025   -0.0002   -0.0066   -0.0208    0.0130
          43   -0.0194    0.0417    0.0031    0.0014   -0.0007   -0.0070   -0.0036   -0.0018
          44    0.1186    0.2475    0.1190    0.0452    0.0038    0.2731    0.0037    0.1491
          45   -0.0092   -0.0312   -0.0095   -0.0036   -0.0003   -0.0242    0.0004   -0.0114
          46    0.0219   -0.1677    0.1689    0.0790   -0.0161   -0.1876    0.0221    0.1605
          47    0.0445   -0.1267    0.0800    0.0353   -0.0067   -0.0850    0.0222    0.0724
          48   -0.0054    0.0605   -0.0401   -0.0183    0.0039    0.0472   -0.0051   -0.0359
          49    0.1303   -0.1322   -0.0835   -0.0365    0.0054    0.0798   -0.2016    0.1168
          50   -0.0880    0.0422    0.0319    0.0176   -0.0023   -0.0403    0.1492   -0.0782
          51   -0.0126    0.0066    0.0099    0.0039   -0.0006   -0.0054    0.0118   -0.0082
          52   -0.0174   -0.0016    0.0235   -0.0255    0.0066    0.0079    0.0043   -0.0001
          53    0.0107    0.0055    0.0008    0.0100   -0.0076   -0.0146   -0.0122   -0.0026
          54   -0.0020   -0.0010    0.0000   -0.0039   -0.0288    0.0034    0.0021    0.0003
          55    0.0064   -0.0045   -0.0802    0.2025   -0.1493    0.0202   -0.0216   -0.0198
          56    0.0257    0.0010   -0.0040   -0.0880   -0.2213   -0.0109   -0.0064    0.0065
          57   -0.0125    0.0016    0.0619   -0.1514    0.0923   -0.0094    0.0201    0.0157
          58    0.0052   -0.0045   -0.0775    0.2101    0.0785    0.0137   -0.0202   -0.0174
          59    0.0271   -0.0017   -0.0371    0.0227    0.2360   -0.0184   -0.0117    0.0048
          60    0.0037   -0.0015   -0.0563    0.1700   -0.0344    0.0130   -0.0179   -0.0178
          61    0.0142   -0.0044   -0.0150   -0.0766   -0.0021   -0.0029    0.0425    0.0243
          62   -0.0141    0.0065    0.0240    0.0694    0.0596   -0.0045   -0.0436   -0.0231
          63    0.0015   -0.0018   -0.0089    0.0260    0.3763   -0.0090    0.0068    0.0061


   Root No.      41        42        43        44        45        46        47        48

                41 A      42 A      43 A      44 A      45 A      46 A      47 A      48 A   

                1287.4    1307.5    1349.6    1463.7    1513.8    1599.1    1642.0    1722.1
  
           1    0.1064   -0.0057    0.0279   -0.0027   -0.0028    0.0065    0.0053    0.0651
           2   -0.0809   -0.0025   -0.0256    0.0012    0.0016    0.0029    0.0032    0.0919
           3    0.0123    0.0004    0.0037   -0.0003   -0.0003   -0.0006   -0.0005   -0.0156
           4   -0.0414    0.0046   -0.0512   -0.0094    0.0209   -0.0174    0.0025    0.0173
           5    0.0192   -0.0065    0.0293    0.0114   -0.0151   -0.0255    0.0047    0.0543
           6   -0.0011   -0.0003    0.0002    0.0014    0.0006   -0.0008   -0.0011    0.0003
           7   -0.0033    0.0013    0.0061   -0.0012   -0.0047    0.0112   -0.0013   -0.0256
           8   -0.0091    0.0031    0.0061   -0.0038   -0.0112    0.0199    0.0045   -0.0374
           9    0.0003    0.0004    0.0000   -0.0003   -0.0001    0.0004    0.0003   -0.0002
          10   -0.0315   -0.0073    0.0659    0.0731   -0.0120   -0.1000   -0.1181   -0.0277
          11    0.0057    0.0049   -0.0318   -0.0101    0.1008    0.0147   -0.0997   -0.0076
          12    0.0044    0.0003   -0.0070   -0.0094   -0.0058    0.0132    0.0245    0.0047
          13    0.0216    0.0030   -0.0089   -0.0301    0.0660    0.1361    0.0504    0.0270
          14    0.0089    0.0012   -0.0355   -0.0540   -0.0324   -0.0811    0.0475   -0.0108
          15   -0.0041   -0.0004    0.0044    0.0087   -0.0073   -0.0139   -0.0110   -0.0032
          16    0.0198    0.0039   -0.0512   -0.0348   -0.0397   -0.0512   -0.0478   -0.0062
          17    0.0223    0.0041   -0.0264    0.0807   -0.0330    0.0758   -0.1476    0.0099
          18   -0.0047   -0.0010    0.0098   -0.0010    0.0088    0.0016    0.0192    0.0002
          19   -0.0086   -0.0011    0.0013    0.0860    0.0076    0.0895    0.1082    0.0077
          20   -0.0253   -0.0053    0.0576    0.0063    0.0501   -0.0120    0.1070   -0.0033
          21    0.0032    0.0006   -0.0055   -0.0142   -0.0055   -0.0124   -0.0253   -0.0012
          22    0.0080   -0.0004    0.0272   -0.0309    0.0598   -0.1307   -0.0190   -0.0148
          23   -0.0218   -0.0037    0.0230   -0.0539   -0.0447    0.0880   -0.0664    0.0174
          24    0.0002    0.0003   -0.0057    0.0092   -0.0050    0.0121    0.0087    0.0009
          25   -0.0332   -0.0033    0.0561   -0.0441   -0.0923    0.0553    0.0373   -0.0028
          26    0.0171    0.0046   -0.0452    0.0631   -0.0347   -0.0848    0.1516   -0.0179
          27    0.0034    0.0002   -0.0039    0.0007    0.0166   -0.0006   -0.0188    0.0018
          28   -0.0121   -0.0031   -0.0507    0.0150    0.0236   -0.0114   -0.0056    0.1259
          29    0.0086    0.0003    0.0316   -0.0045   -0.0090   -0.0262   -0.0072    0.1957
          30    0.0007    0.0003    0.0004   -0.0025   -0.0007    0.0084    0.0015   -0.0630
          31    0.0101    0.0015   -0.0004   -0.0027    0.0061    0.0122   -0.0030   -0.0835
          32    0.0158    0.0017   -0.0041   -0.0028    0.0068    0.0174    0.0015   -0.1242
          33   -0.0054   -0.0006    0.0010    0.0013   -0.0026   -0.0062    0.0004    0.0419
          34    0.0001    0.0050    0.0135    0.0029   -0.0027   -0.0054    0.0002   -0.0487
          35   -0.0326    0.0000   -0.0146    0.0030    0.0020    0.0020   -0.0063   -0.1050
          36    0.0057   -0.0001    0.0023   -0.0005   -0.0004   -0.0001    0.0010    0.0191
          37   -0.0006   -0.0001   -0.0002   -0.0001   -0.0001    0.0000    0.0001   -0.0001
          38   -0.0004    0.0001   -0.0002    0.0000    0.0001    0.0000   -0.0001    0.0001
          39    0.0001    0.0000    0.0001    0.0000    0.0000    0.0000    0.0000   -0.0001
          40    0.1081    0.0048   -0.1369   -0.0235   -0.1216   -0.0339    0.0114    0.0001
          41   -0.0485   -0.0003    0.0457   -0.0459    0.0936    0.0289    0.0328    0.0064
          42   -0.0109   -0.0033    0.0149    0.0062    0.0110    0.0038   -0.0047   -0.0006
          43    0.0196    0.0039   -0.0487   -0.0335   -0.0263   -0.0297   -0.0270    0.0000
          44    0.0255   -0.0013    0.0390   -0.1863    0.0780   -0.0147    0.0589    0.0048
          45   -0.0048   -0.0003    0.0038    0.0200   -0.0030    0.0053   -0.0014   -0.0002
          46   -0.0287   -0.0013   -0.0559   -0.1540   -0.0721   -0.0027   -0.0568    0.0048
          47   -0.0348   -0.0056    0.0272   -0.1113   -0.0037   -0.0359    0.0054   -0.0028
          48    0.0086    0.0004    0.0101    0.0375    0.0126    0.0042    0.0115   -0.0004
          49    0.0183    0.0100   -0.0850   -0.0362   -0.1290    0.0391   -0.0244    0.0167
          50   -0.0280   -0.0104    0.0949   -0.0386    0.0683   -0.0156   -0.0266   -0.0066
          51    0.0021   -0.0002    0.0030    0.0083    0.0111   -0.0037    0.0049   -0.0044
          52   -0.0340   -0.0196   -0.0088    0.0011   -0.0001    0.0002    0.0000   -0.0045
          53    0.0618    0.0554    0.0206   -0.0017   -0.0009   -0.0015    0.0000   -0.0065
          54   -0.0108   -0.0098   -0.0032    0.0003    0.0000    0.0003    0.0000    0.0008
          55   -0.0598   -0.0245   -0.0113   -0.0004   -0.0003    0.0007    0.0005    0.0059
          56    0.0948   -0.2541   -0.0030   -0.0021    0.0016    0.0042    0.0002   -0.0045
          57    0.0282   -0.0010    0.0038    0.0010    0.0004    0.0007    0.0000   -0.0156
          58   -0.0536   -0.0228   -0.0116   -0.0003    0.0002    0.0007    0.0005    0.0051
          59    0.0929   -0.2333   -0.0019   -0.0023    0.0015    0.0037    0.0001    0.0013
          60   -0.0598    0.0794   -0.0037   -0.0002   -0.0007   -0.0019   -0.0001    0.0155
          61   -0.0040    0.2759    0.0269    0.0039   -0.0055   -0.0083    0.0031    0.0611
          62    0.0274   -0.2058   -0.0125   -0.0043    0.0043    0.0080   -0.0037   -0.0403
          63    0.0032    0.0417    0.0025    0.0007    0.0001   -0.0016    0.0003    0.0075


   Root No.      49        50        51        52        53        54        55        56

                49 A      50 A      51 A      52 A      53 A      54 A      55 A      56 A   

                1740.3    1775.3    2648.0    2663.7    2707.5    2714.5    2720.9    2735.5
  
           1   -0.0754    0.0766    0.0006   -0.0030    0.0000    0.0000    0.0000    0.0000
           2   -0.1361    0.1620   -0.0005   -0.0006    0.0000    0.0000    0.0000    0.0001
           3    0.0220   -0.0275   -0.0026   -0.0003    0.0000    0.0000    0.0000    0.0000
           4    0.1343    0.0533   -0.0002    0.0009   -0.0001   -0.0004    0.0001   -0.0002
           5    0.2290    0.1119   -0.0001    0.0005    0.0000    0.0005   -0.0003    0.0010
           6   -0.0026    0.0002   -0.0002    0.0000    0.0000    0.0000    0.0000    0.0000
           7   -0.0855   -0.0496    0.0000   -0.0003    0.0000   -0.0001    0.0000   -0.0001
           8   -0.1471   -0.0766    0.0001   -0.0004    0.0001   -0.0001    0.0001   -0.0003
           9    0.0000   -0.0003    0.0000    0.0001    0.0000    0.0000    0.0000    0.0000
          10   -0.0171    0.0166    0.0000    0.0001    0.0000   -0.0025    0.0000    0.0001
          11   -0.0152   -0.0039    0.0001   -0.0004    0.0005   -0.0025   -0.0001   -0.0016
          12    0.0029   -0.0029    0.0000    0.0000    0.0000    0.0006    0.0000    0.0001
          13    0.0220   -0.0054    0.0000    0.0001   -0.0061   -0.0191   -0.0062   -0.0084
          14   -0.0040    0.0019    0.0000    0.0002   -0.0098   -0.0329   -0.0060   -0.0105
          15   -0.0025    0.0009    0.0000    0.0000    0.0016    0.0054    0.0014    0.0021
          16   -0.0061    0.0010    0.0000   -0.0001    0.0024    0.0160   -0.0238   -0.0268
          17    0.0036    0.0002    0.0000    0.0001    0.0006   -0.0035   -0.0015    0.0012
          18    0.0007   -0.0001    0.0000    0.0000   -0.0005   -0.0021    0.0037    0.0038
          19    0.0132   -0.0001    0.0000   -0.0001   -0.0081    0.0043    0.0119   -0.0115
          20   -0.0004   -0.0007    0.0000    0.0002    0.0099   -0.0032   -0.0277    0.0202
          21   -0.0021    0.0002    0.0000    0.0000    0.0006   -0.0004    0.0003    0.0002
          22   -0.0241   -0.0022    0.0000    0.0001   -0.0237    0.0050   -0.0020    0.0040
          23    0.0211    0.0011    0.0000    0.0002   -0.0373    0.0075   -0.0080    0.0086
          24    0.0019    0.0002    0.0000    0.0000    0.0064   -0.0013    0.0009   -0.0013
          25    0.0151    0.0048    0.0000    0.0000   -0.0009    0.0008   -0.0003    0.0014
          26   -0.0287   -0.0094    0.0000    0.0001   -0.0027    0.0017    0.0002    0.0005
          27    0.0005   -0.0002    0.0000    0.0000    0.0004   -0.0003    0.0000   -0.0002
          28    0.0109   -0.0727    0.0000    0.0000    0.0007   -0.0002    0.0000   -0.0009
          29    0.0047   -0.1048   -0.0001    0.0003   -0.0001    0.0000    0.0000   -0.0002
          30   -0.0031    0.0352    0.0000   -0.0001   -0.0001    0.0000    0.0000    0.0002
          31   -0.0057    0.0475    0.0000   -0.0001    0.0001    0.0000    0.0000    0.0002
          32   -0.0151    0.0802    0.0000   -0.0001   -0.0003    0.0001    0.0000    0.0003
          33    0.0045   -0.0263    0.0000    0.0000    0.0001    0.0000    0.0000   -0.0001
          34    0.0497   -0.0813    0.0000    0.0001    0.0000    0.0000    0.0000    0.0000
          35    0.1200   -0.1364    0.0000    0.0004    0.0001    0.0000    0.0000   -0.0001
          36   -0.0209    0.0242    0.0000   -0.0001    0.0000    0.0000    0.0000    0.0000
          37    0.0002    0.0007    0.0000    0.0000    0.0000    0.0000    0.0000    0.0000
          38    0.0001   -0.0001    0.0000    0.0000    0.0000    0.0000    0.0000    0.0000
          39    0.0000    0.0000    0.0000    0.0000    0.0000    0.0000    0.0000    0.0000
          40   -0.0096   -0.0077    0.0002   -0.0021    0.0793    0.2657    0.0577    0.0866
          41    0.0106    0.0002    0.0002   -0.0027    0.1251    0.4191    0.0931    0.1373
[...]
 TRAVEL      0.2039        C 18 --  H 20          +22.3% ( 40.3%)     8.9%
 RED. MASS   0.3663        C  1 --  C 18           +2.8% ( 14.3%)    13.8%
 EFF. MASS   1.3443

 VIBRATION   38   38A       ATOM PAIR        ENERGY CONTRIBUTION    RADIAL
 FREQ.      1229.72        C  6 --  H 15          +18.2% ( 55.6%)     4.4%
 T-DIPOLE    0.9186        C  7 --  H 16          +11.9% ( 45.1%)     5.2%
 TRAVEL      0.1019        C  5 --  C  6          +11.5% ( 44.2%)    98.1%
 RED. MASS   0.4323        C  7 --  C  8           +9.9% ( 41.0%)    99.9%
 EFF. MASS   5.2789

 VIBRATION   39   39A       ATOM PAIR        ENERGY CONTRIBUTION    RADIAL
 FREQ.      1244.63        C  9 --  C 10          +13.6% ( 49.8%)    99.5%
 T-DIPOLE    0.7560        C 10 --  C 12          +12.0% ( 46.7%)    85.0%
 TRAVEL      0.0872        C  8 --  H 17          +10.6% ( 43.8%)     6.5%
 RED. MASS   0.7876        C  5 --  H 14          +10.1% ( 42.9%)     2.0%
 EFF. MASS   7.1330        C  2 --  C  4          +10.1% ( 42.8%)    99.6%

 VIBRATION   40   40A       ATOM PAIR        ENERGY CONTRIBUTION    RADIAL
 FREQ.      1253.54        C  5 --  H 14          +10.7% ( 42.7%)     0.2%
 T-DIPOLE    0.5562        C  9 --  C 10          +10.3% ( 42.0%)    70.9%
 TRAVEL      0.0988        C  4 --  C  9          +10.2% ( 41.8%)     0.1%
 RED. MASS   0.4280        C  7 --  H 16           +9.8% ( 40.8%)     1.8%
 EFF. MASS   5.5094

 VIBRATION   41   41A       ATOM PAIR        ENERGY CONTRIBUTION    RADIAL
 FREQ.      1287.36        C  1 --  C 18          +22.8% ( 77.0%)    90.3%
 T-DIPOLE    1.8236        C  1 --  C  2          +17.6% ( 67.6%)    68.2%
 TRAVEL      0.0695        C  1 --  C 12          +14.0% ( 60.3%)     0.8%
 RED. MASS   3.2944        C  1 -- Br 13          +13.6% ( 59.6%)    22.2%
 EFF. MASS  10.8439

 VIBRATION   42   42A       ATOM PAIR        ENERGY CONTRIBUTION    RADIAL
 FREQ.      1307.51        C 18 --  H 21          +39.8% ( 65.8%)     2.4%
 T-DIPOLE    1.7644        C 18 --  H 19          +24.6% ( 51.7%)     1.2%
 TRAVEL      0.1454        C 18 --  H 20          +23.7% ( 50.8%)     1.2%
 RED. MASS   0.5132        C  1 --  C 18           +8.3% ( 30.0%)    95.2%
 EFF. MASS   2.4400

 VIBRATION   43   43A       ATOM PAIR        ENERGY CONTRIBUTION    RADIAL
 FREQ.      1349.63        C  2 --  C  4          +10.9% ( 49.0%)    66.4%
 T-DIPOLE    3.9091        C  9 --  C 10          +10.7% ( 48.6%)    68.0%
 TRAVEL      0.0676        C  4 --  C  9          +10.6% ( 48.5%)    99.2%
 RED. MASS   1.1861        C  6 --  C  7          +10.1% ( 47.2%)   100.0%
 EFF. MASS  10.9384

 VIBRATION   44   44A       ATOM PAIR        ENERGY CONTRIBUTION    RADIAL
 FREQ.      1463.72        C  6 --  C  7          +12.1% ( 49.1%)     0.0%
 T-DIPOLE    0.4033        C  5 --  C  6          +11.8% ( 48.5%)    80.7%
 TRAVEL      0.0674        C  7 --  C  8          +11.5% ( 47.9%)    76.1%
 RED. MASS   1.4814        C  8 --  C  9          +10.6% ( 45.9%)    86.1%
 EFF. MASS  10.1406        C  4 --  C  9          +10.1% ( 44.8%)     0.0%

 VIBRATION   45   45A       ATOM PAIR        ENERGY CONTRIBUTION    RADIAL
 FREQ.      1513.81        C  4 --  C  9          +19.4% ( 62.4%)   100.0%
 T-DIPOLE    1.8748        C  4 --  C  5          +13.4% ( 51.8%)    29.1%
 TRAVEL      0.0648        C  8 --  C  9          +13.1% ( 51.3%)    27.2%
 RED. MASS   1.8278        C  2 --  C  4           +8.8% ( 42.1%)    95.9%
 EFF. MASS  10.5996

 VIBRATION   46   46A       ATOM PAIR        ENERGY CONTRIBUTION    RADIAL
 FREQ.      1599.11        C  4 --  C  5          +15.2% ( 55.1%)    88.9%
 T-DIPOLE    3.8049        C  8 --  C  9          +15.0% ( 54.8%)    89.1%
 TRAVEL      0.0593        C  5 --  C  6          +13.4% ( 51.8%)    85.3%
 RED. MASS   2.3276        C  7 --  C  8          +13.2% ( 51.4%)    85.9%
 EFF. MASS  12.0100

 VIBRATION   47   47A       ATOM PAIR        ENERGY CONTRIBUTION    RADIAL
 FREQ.      1641.96        C  4 --  C  9          +17.8% ( 58.8%)   100.0%
 T-DIPOLE    0.5090        C  6 --  C  7          +17.6% ( 58.4%)   100.0%
 TRAVEL      0.0586        C  8 --  C  9           +9.8% ( 43.6%)    53.6%
 RED. MASS   2.4802        C  4 --  C  5           +9.7% ( 43.4%)    53.1%
 EFF. MASS  11.9437

 VIBRATION   48   48A       ATOM PAIR        ENERGY CONTRIBUTION    RADIAL
 FREQ.      1722.15        C 10 --  O 11          +35.8% ( 84.9%)   100.0%
 T-DIPOLE   10.3641        C 10 --  C 12          +19.4% ( 62.4%)    31.7%
 TRAVEL      0.0549        C  9 --  C 10          +15.4% ( 55.6%)    25.6%
 RED. MASS   3.8646        C  1 --  C 12          +10.7% ( 46.4%)   100.0%
 EFF. MASS  13.0110

 VIBRATION   49   49A       ATOM PAIR        ENERGY CONTRIBUTION    RADIAL
 FREQ.      1740.30        C  2 --  O  3          +33.8% ( 83.7%)   100.0%
 T-DIPOLE    6.3938        C  1 --  C  2          +20.3% ( 64.8%)    24.7%
 TRAVEL      0.0547        C  2 --  C  4          +14.6% ( 55.0%)    26.6%
 RED. MASS   3.9043        C  1 --  C 12          +13.0% ( 51.9%)    99.5%
 EFF. MASS  12.9603

 VIBRATION   50   50A       ATOM PAIR        ENERGY CONTRIBUTION    RADIAL
 FREQ.      1775.28        C  1 --  C 12          +23.5% ( 69.5%)    99.8%
 T-DIPOLE    3.7034        C 10 --  O 11          +11.8% ( 49.3%)   100.0%
 TRAVEL      0.0547        C  1 --  C  2          +11.8% ( 49.3%)    14.2%
 RED. MASS   2.3413        C  2 --  O  3          +10.6% ( 46.6%)    99.9%
 EFF. MASS  12.6853

 VIBRATION   51   51A       ATOM PAIR        ENERGY CONTRIBUTION    RADIAL
 FREQ.      2648.01        C 18 --  H 20          +59.2% ( 79.4%)    98.9%
 T-DIPOLE    1.0890        C 18 --  H 19          +37.9% ( 63.5%)    95.8%
 TRAVEL      0.1332        C 18 --  H 21           +2.1% ( 14.8%)    29.2%
 RED. MASS   0.5084        C  1 --  C 18           +0.8% (  9.2%)     0.0%
 EFF. MASS   1.4356

 VIBRATION   52   52A       ATOM PAIR        ENERGY CONTRIBUTION    RADIAL
 FREQ.      2663.74        C 18 --  H 21          +58.6% ( 78.9%)    99.3%
 T-DIPOLE    0.9073        C 18 --  H 19          +29.7% ( 56.2%)    93.5%
 TRAVEL      0.1322        C 18 --  H 20          +10.7% ( 33.8%)    77.2%
 RED. MASS   0.4595        C  1 --  C 18           +0.9% (  9.7%)     0.0%
 EFF. MASS   1.4489

 VIBRATION   53   53A       ATOM PAIR        ENERGY CONTRIBUTION    RADIAL
 FREQ.      2707.48        C  8 --  H 17          +84.6% ( 93.1%)   100.0%
 T-DIPOLE    1.2365        C  7 --  H 16           +7.2% ( 27.2%)    99.9%
 TRAVEL      0.1331        C  5 --  H 14           +5.7% ( 24.3%)   100.0%
 RED. MASS   0.7068        C  7 --  C  8           +1.0% ( 10.2%)     8.2%
 EFF. MASS   1.4063

 VIBRATION   54   54A       ATOM PAIR        ENERGY CONTRIBUTION    RADIAL
 FREQ.      2714.45        C  5 --  H 14          +76.8% ( 88.6%)   100.0%
 T-DIPOLE    0.8916        C  6 --  H 15          +15.2% ( 39.5%)    99.9%
 TRAVEL      0.1338        C  8 --  H 17           +4.4% ( 21.2%)   100.0%
 RED. MASS   0.5984        C  7 --  H 16           +1.4% ( 12.1%)    99.3%
 EFF. MASS   1.3885

 VIBRATION   55   55A       ATOM PAIR        ENERGY CONTRIBUTION    RADIAL
 FREQ.      2720.94        C  7 --  H 16          +55.0% ( 75.0%)   100.0%
 T-DIPOLE    1.4765        C  6 --  H 15          +35.2% ( 60.0%)   100.0%
 TRAVEL      0.1337        C  5 --  H 14           +4.3% ( 20.9%)    99.7%
 RED. MASS   0.4164        C  8 --  H 17           +3.5% ( 18.9%)    99.6%
 EFF. MASS   1.3865

 VIBRATION   56   56A       ATOM PAIR        ENERGY CONTRIBUTION    RADIAL
 FREQ.      2735.45        C  6 --  H 15          +47.3% ( 69.4%)   100.0%
 T-DIPOLE    1.7108        C  7 --  H 16          +34.2% ( 59.0%)   100.0%
 TRAVEL      0.1302        C  5 --  H 14          +10.8% ( 33.2%)    99.9%
 RED. MASS   0.3473        C  8 --  H 17           +5.0% ( 22.6%)    99.9%
 EFF. MASS   1.4537

 VIBRATION   57   57A       ATOM PAIR        ENERGY CONTRIBUTION    RADIAL
 FREQ.      2771.19        C 18 --  H 21          +39.4% ( 60.2%)    96.5%
 T-DIPOLE    0.7773        C 18 --  H 19          +31.4% ( 53.8%)    95.0%
 TRAVEL      0.1454        C 18 --  H 20          +28.7% ( 51.4%)    94.4%
 RED. MASS   0.3304        C  1 --  C 18           +0.3% (  5.1%)    99.2%
 EFF. MASS   1.1510

 SYMMETRY NUMBER FOR POINT-GROUP C1  =  1


          SYSTEM IS A GROUND STATE


                                                                                                                                                                                                                                                 
 SJ000001677-2_T001S001I001C02: Free energy calculation                                                                                                                                                                                          


          MOLECULE IS NOT LINEAR

          THERE ARE 57 GENUINE VIBRATIONS IN THIS SYSTEM
          THIS THERMODYNAMICS CALCULATION IS LIMITED TO
          MOLECULES WHICH HAVE NO INTERNAL ROTATIONS




                    CALCULATED THERMODYNAMIC PROPERTIES
                                          *
   TEMP. (K)   PARTITION FUNCTION   H.O.F.    ENTHALPY  HEAT CAPACITY ENTROPY
                                   KCAL/MOL   CAL/MOLE    CAL/K/MOL  CAL/K/MOL


 298.00  VIB.     0.1944D+05                  5799.2221    39.2661    39.0845
         ROT.     0.2820D+07                   888.2813     2.9808    32.4951
         INT.     0.5482D+11                  6687.5034    42.2469    71.5796
         TRA.     0.3846D+28                  1480.4688     4.9680    42.4599
         TOT.                      -34.299    8167.9722    47.2149   114.0395

 200.00  VIB.     0.7906D+03                  2573.6675    26.4736    26.1286
         ROT.     0.1550D+07                   596.1620     2.9808    31.3064
         INT.     0.1226D+10                  3169.8294    29.4544    57.4350
         TRA.     0.2115D+28                   993.6033     4.9680    40.4788
         TOT.                      -38.303    4163.4327    34.4224    97.9138

 210.00  VIB.     0.1093D+04                  2845.0349    27.7992    27.4523
         ROT.     0.1668D+07                   625.9700     2.9808    31.4519
         INT.     0.1824D+10                  3471.0050    30.7800    58.9042
         TRA.     0.2275D+28                  1043.2834     4.9680    40.7212
         TOT.                      -37.953    4514.2884    35.7481    99.6254

 220.00  VIB.     0.1513D+04                  3129.6401    29.1212    28.7761
         ROT.     0.1789D+07                   655.7781     2.9808    31.5905
         INT.     0.2707D+10                  3785.4183    32.1020    60.3666
         TRA.     0.2440D+28                  1092.9636     4.9680    40.9523
         TOT.                      -37.588    4878.3818    37.0701   101.3189

 230.00  VIB.     0.2096D+04                  3427.4482    30.4398    30.0997
         ROT.     0.1912D+07                   685.5862     2.9808    31.7230
         INT.     0.4007D+10                  4113.0345    33.4206    61.8227
         TRA.     0.2608D+28                  1142.6437     4.9680    41.1731
         TOT.                      -37.211    5255.6782    38.3886   102.9958

 240.00  VIB.     0.2905D+04                  3738.4246    31.7548    31.4230
         ROT.     0.2038D+07                   715.3943     2.9808    31.8499
         INT.     0.5920D+10                  4453.8189    34.7356    63.2729
         TRA.     0.2780D+28                  1192.3239     4.9680    41.3846
         TOT.                      -36.821    5646.1428    39.7036   104.6574

 250.00  VIB.     0.4028D+04                  4062.5303    33.0656    32.7459
         ROT.     0.2167D+07                   745.2024     2.9808    31.9716
         INT.     0.8727D+10                  4807.7328    36.0464    64.7174
         TRA.     0.2955D+28                  1242.0041     4.9680    41.5874
         TOT.                      -36.417    6049.7368    41.0144   106.3048

 260.00  VIB.     0.5588D+04                  4399.7194    34.3713    34.0682
         ROT.     0.2298D+07                   775.0105     2.9808    32.0885
         INT.     0.1284D+11                  5174.7299    37.3521    66.1567
         TRA.     0.3135D+28                  1291.6842     4.9680    41.7822
         TOT.                      -36.000    6466.4142    42.3201   107.9389

 270.00  VIB.     0.7754D+04                  4749.9358    35.6709    35.3898
         ROT.     0.2432D+07                   804.8186     2.9808    32.2010
         INT.     0.1886D+11                  5554.7545    38.6517    67.5907
         TRA.     0.3317D+28                  1341.3644     4.9680    41.9697
         TOT.                      -35.571    6896.1188    43.6197   109.5604

 280.00  VIB.     0.1076D+05                  5113.1119    36.9630    36.7104
         ROT.     0.2568D+07                   834.6267     2.9808    32.3094
         INT.     0.2765D+11                  5947.7386    39.9438    69.0198
         TRA.     0.3503D+28                  1391.0445     4.9680    42.1504
         TOT.                      -35.128    7338.7832    44.9118   111.1702

 290.00  VIB.     0.1495D+05                  5489.1672    38.2465    38.0299
         ROT.     0.2707D+07                   864.4348     2.9808    32.4140
         INT.     0.4046D+11                  6353.6020    41.2273    70.4439
         TRA.     0.3692D+28                  1440.7247     4.9680    42.3247
         TOT.                      -34.673    7794.3268    46.1953   112.7686

 300.00  VIB.     0.2076D+05                  5878.0081    39.5199    39.3480
         ROT.     0.2848D+07                   894.2429     2.9808    32.5150
         INT.     0.5914D+11                  6772.2511    42.5007    71.8630
         TRA.     0.3885D+28                  1490.4049     4.9680    42.4931
         TOT.                      -34.204    8262.6559    47.4687   114.3562

 310.00  VIB.     0.2884D+05                  6279.5277    40.7820    40.6645
         ROT.     0.2992D+07                   924.0510     2.9808    32.6128
         INT.     0.8629D+11                  7203.5787    43.7628    73.2772
         TRA.     0.4081D+28                  1540.0850     4.9680    42.6560
         TOT.                      -33.723    8743.6637    48.7308   115.9333

 320.00  VIB.     0.4008D+05                  6693.6059    42.0314    41.9790
         ROT.     0.3138D+07                   953.8591     2.9808    32.7074
         INT.     0.1257D+12                  7647.4650    45.0123    74.6864
         TRA.     0.4280D+28                  1589.7652     4.9680    42.8138
         TOT.                      -33.230    9237.2302    49.9803   117.5002

 330.00  VIB.     0.5569D+05                  7120.1106    43.2671    43.2913
         ROT.     0.3286D+07                   983.6672     2.9808    32.7991
         INT.     0.1830D+12                  8103.7778    46.2479    76.0905
         TRA.     0.4482D+28                  1639.4454     4.9680    42.9666
         TOT.                      -32.724    9743.2231    51.2159   119.0571

 340.00  VIB.     0.7739D+05                  7558.8980    44.4878    44.6012
         ROT.     0.3436D+07                  1013.4753     2.9808    32.8881
         INT.     0.2659D+12                  8572.3733    47.4686    77.4893
         TRA.     0.4687D+28                  1689.1255     4.9680    43.1150
         TOT.                      -32.205   10261.4988    52.4366   120.6042

 350.00  VIB.     0.1075D+06                  8009.8140    45.6927    45.9082
         ROT.     0.3589D+07                  1043.2834     2.9808    32.9745
         INT.     0.3860D+12                  9053.0974    48.6735    78.8827
         TRA.     0.4896D+28                  1738.8057     4.9680    43.2590
         TOT.                      -31.675   10791.9031    53.6415   122.1417

 360.00  VIB.     0.1494D+06                  8472.6951    46.8807    47.2121
         ROT.     0.3744D+07                  1073.0915     2.9808    33.0585
         INT.     0.5595D+12                  9545.7866    49.8615    80.2706
         TRA.     0.5107D+28                  1788.4859     4.9680    43.3989
         TOT.                      -31.133   11334.2725    54.8295   123.6695

 370.00  VIB.     0.2076D+06                  8947.3698    48.0512    48.5126
         ROT.     0.3901D+07                  1102.8996     2.9808    33.1402
         INT.     0.8100D+12                 10050.2694    51.0320    81.6527
         TRA.     0.5321D+28                  1838.1660     4.9680    43.5350
         TOT.                      -30.578   11888.4354    56.0001   125.1878

 380.00  VIB.     0.2885D+06                  9433.6592    49.2036    49.8093
         ROT.     0.4060D+07                  1132.7077     2.9808    33.2197
         INT.     0.1171D+13                 10566.3669    52.1844    83.0290
         TRA.     0.5538D+28                  1887.8462     4.9680    43.6675
         TOT.                      -30.013   12454.2131    57.1524   126.6965

 390.00  VIB.     0.4007D+06                  9931.3790    50.3372    51.1021
         ROT.     0.4222D+07                  1162.5158     2.9808    33.2971
         INT.     0.1692D+13                 11093.8948    53.3180    84.3992
         TRA.     0.5759D+28                  1937.5263     4.9680    43.7966
         TOT.                      -29.435   13031.4211    58.2860   128.1958

 400.00  VIB.     0.5566D+06                 10440.3397    51.4517    52.3906
         ROT.     0.4385D+07                  1192.3239     2.9808    33.3726
         INT.     0.2441D+13                 11632.6636    54.4325    85.7632
         TRA.     0.5981D+28                  1987.2065     4.9680    43.9224
         TOT.                      -28.847   13619.8701    59.4005   129.6856

   *: NOTE: HEATS OF FORMATION ARE RELATIVE TO THE
             ELEMENTS IN THEIR STANDARD STATE AT 298K
              (=  Standard Enthalpy of Formation).
            Heat of Formation at T is calculated as [Escf + (HT - H298.15)-.

            Hvib:  Zero-point energy is not included.
                   Wi < 100 cm-1 are not included.
            Hrot = (3/2)RT
            Htra = (3/2)RT + pV = (5/2)RT

            Heat capacity is Cp, not Cv

                 See Section 8.20 in Manual for further information.   (by TH).

           FORCE CONSTANT IN CARTESIAN COORDINATES (Millidynes/A)

    ATOM   CHEMICAL       X               Y               Z
   NUMBER   SYMBOL  FORCE CONSTANT  FORCE CONSTANT  FORCE CONSTANT

      1       C        9.022587       12.515611        2.632216
      2       C        8.872710       12.627645        2.570736
      3       O        4.259708        9.715575        0.270524
      4       C       10.578030       10.204683        2.401574
      5       C        9.876458        9.460246        2.435884
      6       C        9.298036       10.073381        2.427274
      7       C        9.516150        9.746681        2.522799
      8       C        9.687253        9.694360        2.400758
      9       C        9.890687       10.831722        2.433150
     10       C        9.293173       11.426863        3.390749
     11       O        4.350029        8.722659        1.241004
     12       C        7.164227       11.232698        1.852270
     13      Br        3.541922        0.569397        0.143215
     14       H        1.745219        3.126988        0.447460
     15       H        4.070687        0.829935        0.448142
     16       H        1.510139        3.442630        0.397165
     17       H        1.664933        3.149962        0.452658
     18       C        6.302056        7.286380        5.710340
     19       H        1.675830        0.655166        2.867911
     20       H        1.787038        0.908890        2.465509
     21       H        2.077984        2.716592        0.546464



 TOTAL CPU TIME:             8.53 SECONDS

 == MOPAC DONE ==
