 *******************************************************************************
 ** Site#:  958            For non-commercial use only         Version 9.015L **
 *******************************************************************************
 ** Cite this work as: MOPAC2009, James J. P. Stewart, Stewart Computational  **
 ** Chemistry, Version 9.015L web: HTTP://OpenMOPAC.net                       **
 *******************************************************************************
 **                                                                           **
 **                                MOPAC2009                                  **
 **                                                                           **
 *******************************************************************************

                            PM6 CALCULATION RESULTS


 *******************************************************************************
 *  CALCULATION DONE:                                Tue Sep  6 16:27:56 2011  *
 *  PM6      - The PM6 Hamiltonian to be used
 *
 *
 *
 *                 CHARGE ON SYSTEM =     0
 *
 *
 *
 *  EPS= 78.400
 *  RSOLV=  1.300
 *  LET      - OVERRIDE SOME SAFETY CHECKS
 *  XYZ      - CARTESIAN COORDINATE SYSTEM TO BE USED
 *  T=       - A TIME OF  0.3E+08 SECONDS REQUESTED
 *  DUMP=N   - RESTART FILE WRITTEN EVERY  4320.000 SECONDS
 *  DDMIN=   - MINIMUM TRUST RADIUS  0.000 ANG/RAD
 *  GNORM=   - EXIT WHEN GRADIENT NORM DROPS BELOW .150    
 *  RELSCF   - DEFAULT SCF CRITERION MULTIPLIED BY   0.100    
 *             (DEFAULT SCFCRT= 0.00010)
 *  SYBYL    - OUTPUT SYBYL FILE
 *  MULLIK   - THE MULLIKEN ANALYSIS TO BE PERFORMED
 *******************************************************************************
 PM6 T=31535576 DUMP=4320 XYZ EPS=78.40 RSOLV=1.30 MULLIK SYBYL +
 CHARGE=0 RELSCF=0.1 LET DDMIN=0.0 GNORM=0.15
 SJ000002349-1_T001S001I001C07: Geometry optimization step

   ATOM   CHEMICAL          X               Y              Z
  NUMBER   SYMBOL      (ANGSTROMS)     (ANGSTROMS)    (ANGSTROMS)
 
     1       C          3.1460000  *   -6.015000  *    2.362000  *
     2       C          2.5580000  *   -4.665000  *    2.771000  *
     3       C          1.9870000  *   -3.957000  *    1.565000  *
     4       C          1.4530000  *   -4.673000  *    0.556000  *
     5       C          0.8780000  *   -3.966000  *   -0.646000  *
     6       C          0.5920000  *   -2.520000  *   -0.328000  *
     7       C          1.1780000  *   -1.936000  *    0.735000  *
     8       C          0.8850000  *   -0.489000  *    1.057000  *
     9       C         -0.5440000  *   -0.137000  *    0.645000  *
    10       C         -0.6140000  *   -0.357000  *   -0.867000  *
    11       C         -0.2880000  *   -1.797000  *   -1.155000  *
    12       O         -0.7910000  *   -2.344000  *   -2.115000  *
    13       O          2.0280000  *   -2.616000  *    1.520000  *
    14       C          1.4200000  *   -6.078000  *    0.606000  *
    15       O          0.9300000  *   -6.698000  *   -0.316000  *
    16       C          1.9830000  *   -6.825000  *    1.784000  *
    17       H          1.7670000  *   -4.822000  *    3.505000  *
    18       H          3.3410000  *   -4.049000  *    3.213000  *
    19       H          1.5910000  *   -4.019000  *   -1.468000  *
    20       H          1.0030000  *   -0.328000  *    2.129000  *
    21       H          1.5850000  *    0.149000  *    0.517000  *
    22       H         -1.6180000  *   -0.129000  *   -1.226000  *
    23       H          0.1090000  *    0.289000  *   -1.366000  *
    24       H          2.3420000  *   -7.803000  *    1.461000  *
    25       H          1.2110000  *   -6.951000  *    2.542000  *
    26       C         -0.4030000  *   -4.647000  *   -1.055000  *
    27       C         -0.5200000  *   -5.200000  *   -2.322000  *
    28       C         -1.6990000  *   -5.826000  *   -2.698000  *
    29       C         -2.7580000  *   -5.898000  *   -1.806000  *
    30       H         -1.7920000  *   -6.257000  *   -3.684000  *
    31       C         -2.6360000  *   -5.343000  *   -0.540000  *
    32       C         -1.4580000  *   -4.725000  *   -0.166000  *
    33       H         -3.4610000  *   -5.398000  *    0.155000  *
    34       H         -1.3650000  *   -4.294000  *    0.820000  *
    35       O          0.5200000  *   -5.128000  *   -3.194000  *
    36       H          1.1310000  *   -5.876000  *   -3.140000  *
    37       O         -3.9140000  *   -6.511000  *   -2.172000  *
    38       H         -3.9380000  *   -7.457000  *   -1.970000  *
    39       C          4.2290000  *   -5.818000  *    1.300000  *
    40       H          5.0240000  *   -5.191000  *    1.704000  *
    41       H          4.6410000  *   -6.787000  *    1.016000  *
    42       H          3.7960000  *   -5.337000  *    0.423000  *
    43       C          3.7290000  *   -6.728000  *    3.584000  *
    44       H          4.5360000  *   -6.127000  *    4.003000  *
    45       H          2.9490000  *   -6.863000  *    4.333000  *
    46       H          4.1190000  *   -7.701000  *    3.285000  *
    47       C         -1.5390000  *   -1.056000  *    1.357000  *
    48       H         -1.4380000  *   -0.934000  *    2.436000  *
    49       H         -2.5540000  *   -0.796000  *    1.056000  *
    50       H         -1.3350000  *   -2.092000  *    1.087000  *
    51       C         -0.8440000  *    1.325000  *    0.981000  *
    52       H         -0.1490000  *    1.971000  *    0.445000  *
    53       H         -1.8650000  *    1.564000  *    0.683000  *
    54       H         -0.7330000  *    1.482000  *    2.054000  *
 


          CARTESIAN COORDINATES 

    NO.       ATOM         X         Y         Z

     1         C        3.1460   -6.0150    2.3620
     2         C        2.5580   -4.6650    2.7710
     3         C        1.9870   -3.9570    1.5650
     4         C        1.4530   -4.6730    0.5560
     5         C        0.8780   -3.9660   -0.6460
     6         C        0.5920   -2.5200   -0.3280
     7         C        1.1780   -1.9360    0.7350
     8         C        0.8850   -0.4890    1.0570
     9         C       -0.5440   -0.1370    0.6450
    10         C       -0.6140   -0.3570   -0.8670
    11         C       -0.2880   -1.7970   -1.1550
    12         O       -0.7910   -2.3440   -2.1150
    13         O        2.0280   -2.6160    1.5200
    14         C        1.4200   -6.0780    0.6060
    15         O        0.9300   -6.6980   -0.3160
    16         C        1.9830   -6.8250    1.7840
    17         H        1.7670   -4.8220    3.5050
    18         H        3.3410   -4.0490    3.2130
    19         H        1.5910   -4.0190   -1.4680
    20         H        1.0030   -0.3280    2.1290
    21         H        1.5850    0.1490    0.5170
    22         H       -1.6180   -0.1290   -1.2260
    23         H        0.1090    0.2890   -1.3660
    24         H        2.3420   -7.8030    1.4610
    25         H        1.2110   -6.9510    2.5420
    26         C       -0.4030   -4.6470   -1.0550
    27         C       -0.5200   -5.2000   -2.3220
    28         C       -1.6990   -5.8260   -2.6980
    29         C       -2.7580   -5.8980   -1.8060
    30         H       -1.7920   -6.2570   -3.6840
    31         C       -2.6360   -5.3430   -0.5400
    32         C       -1.4580   -4.7250   -0.1660
    33         H       -3.4610   -5.3980    0.1550
    34         H       -1.3650   -4.2940    0.8200
    35         O        0.5200   -5.1280   -3.1940
    36         H        1.1310   -5.8760   -3.1400
    37         O       -3.9140   -6.5110   -2.1720
    38         H       -3.9380   -7.4570   -1.9700
    39         C        4.2290   -5.8180    1.3000
    40         H        5.0240   -5.1910    1.7040
    41         H        4.6410   -6.7870    1.0160
    42         H        3.7960   -5.3370    0.4230
    43         C        3.7290   -6.7280    3.5840
    44         H        4.5360   -6.1270    4.0030
    45         H        2.9490   -6.8630    4.3330
    46         H        4.1190   -7.7010    3.2850
    47         C       -1.5390   -1.0560    1.3570
    48         H       -1.4380   -0.9340    2.4360
    49         H       -2.5540   -0.7960    1.0560
    50         H       -1.3350   -2.0920    1.0870
    51         C       -0.8440    1.3250    0.9810
    52         H       -0.1490    1.9710    0.4450
    53         H       -1.8650    1.5640    0.6830
    54         H       -0.7330    1.4820    2.0540

 General Reference for PM6:
 "Optimization of Parameters for Semiempirical Methods V: Modification of NDDO Approximations
 and Application to 70 Elements", J. J. P. Stewart, J. Mol. Mod., 13, 1173-1213 (2007)
 URL: http://www.springerlink.com/content/ar33482301010477/fulltext.pdf

           Empirical Formula: C23 H26 O5  =    54 atoms



      MOLECULAR POINT GROUP   :   C1  


      RHF CALCULATION, NO. OF DOUBLY OCCUPIED LEVELS =   74

      Geometry optimization using EF
  SCF CRITERION =    0.1000E-04

          DIAGONAL MATRIX USED AS START HESSIAN

 CYCLE:     1 TIME:   0.256 TIME LEFT: 16.53W  GRAD.:   195.717 HEAT:-185.4172
 CYCLE:     2 TIME:   0.145 TIME LEFT: 16.53W  GRAD.:   187.418 HEAT:-194.2325
 CYCLE:     3 TIME:   0.144 TIME LEFT: 16.53W  GRAD.:   198.686 HEAT:-198.9512
 CYCLE:     4 TIME:   0.144 TIME LEFT: 16.53W  GRAD.:   249.565 HEAT:-193.3686
 CYCLE:     5 TIME:   0.145 TIME LEFT: 16.53W  GRAD.:   279.325 HEAT:-195.2646
 CYCLE:     6 TIME:   0.144 TIME LEFT: 16.53W  GRAD.:   324.544 HEAT:-189.5309
 CYCLE:     7 TIME:   0.146 TIME LEFT: 16.53W  GRAD.:   196.132 HEAT:-199.3638
 CYCLE:     8 TIME:   0.143 TIME LEFT: 16.53W  GRAD.:   190.651 HEAT:-201.0124
 CYCLE:     9 TIME:   0.144 TIME LEFT: 16.53W  GRAD.:   286.028 HEAT:-193.0981
 CYCLE:    10 TIME:   0.147 TIME LEFT: 16.53W  GRAD.:   215.665 HEAT:-200.2468
 CYCLE:    11 TIME:   0.142 TIME LEFT: 16.53W  GRAD.:   242.437 HEAT:-197.1868
 CYCLE:    12 TIME:   0.144 TIME LEFT: 16.53W  GRAD.:   264.984 HEAT:-195.3731
 CYCLE:    13 TIME:   0.158 TIME LEFT: 16.53W  GRAD.:   235.075 HEAT:-200.6694
 CYCLE:    14 TIME:   0.144 TIME LEFT: 16.53W  GRAD.:   351.550 HEAT:-189.1349
 CYCLE:    15 TIME:   0.144 TIME LEFT: 16.53W  GRAD.:   251.805 HEAT:-197.2643
 CYCLE:    16 TIME:   0.142 TIME LEFT: 16.53W  GRAD.:   309.829 HEAT:-196.3501
 CYCLE:    17 TIME:   0.144 TIME LEFT: 16.53W  GRAD.:   279.687 HEAT:-194.5837
 CYCLE:    18 TIME:   0.154 TIME LEFT: 16.53W  GRAD.:   236.059 HEAT:-201.3447
 CYCLE:    19 TIME:   0.145 TIME LEFT: 16.53W  GRAD.:   301.192 HEAT:-193.2572
 CYCLE:    20 TIME:   0.145 TIME LEFT: 16.53W  GRAD.:   296.834 HEAT:-195.8405
 CYCLE:    21 TIME:   0.157 TIME LEFT: 16.53W  GRAD.:   219.687 HEAT:-202.3408
 CYCLE:    22 TIME:   0.150 TIME LEFT: 16.53W  GRAD.:   279.593 HEAT:-196.0205
 CYCLE:    23 TIME:   0.144 TIME LEFT: 16.53W  GRAD.:   249.584 HEAT:-200.3692
 CYCLE:    24 TIME:   0.155 TIME LEFT: 16.53W  GRAD.:   236.470 HEAT:-201.1818
 CYCLE:    25 TIME:   0.155 TIME LEFT: 16.53W  GRAD.:   276.063 HEAT:-199.0255
 CYCLE:    26 TIME:   0.143 TIME LEFT: 16.53W  GRAD.:   140.926 HEAT:-209.2615
 CYCLE:    27 TIME:   0.141 TIME LEFT: 16.53W  GRAD.:   268.451 HEAT:-195.5359
 CYCLE:    28 TIME:   0.141 TIME LEFT: 16.53W  GRAD.:   192.809 HEAT:-205.9304
 CYCLE:    29 TIME:   0.141 TIME LEFT: 16.53W  GRAD.:   221.784 HEAT:-201.9522
 CYCLE:    30 TIME:   0.141 TIME LEFT: 16.53W  GRAD.:   229.821 HEAT:-201.4581
 CYCLE:    31 TIME:   0.142 TIME LEFT: 16.53W  GRAD.:   151.154 HEAT:-207.2441
 CYCLE:    32 TIME:   0.142 TIME LEFT: 16.53W  GRAD.:   231.799 HEAT:-202.5129
 CYCLE:    33 TIME:   0.142 TIME LEFT: 16.53W  GRAD.:   175.143 HEAT:-205.9217
 CYCLE:    34 TIME:   0.144 TIME LEFT: 16.53W  GRAD.:   188.865 HEAT:-205.2526
 CYCLE:    35 TIME:   0.142 TIME LEFT: 16.53W  GRAD.:   202.598 HEAT:-204.1430
 CYCLE:    36 TIME:   0.142 TIME LEFT: 16.53W  GRAD.:   165.223 HEAT:-206.8730
 CYCLE:    37 TIME:   0.141 TIME LEFT: 16.53W  GRAD.:   208.611 HEAT:-203.7492
 CYCLE:    38 TIME:   0.148 TIME LEFT: 16.53W  GRAD.:   137.571 HEAT:-209.5962
 CYCLE:    39 TIME:   0.145 TIME LEFT: 16.53W  GRAD.:   240.613 HEAT:-201.8827
 CYCLE:    40 TIME:   0.143 TIME LEFT: 16.53W  GRAD.:   129.536 HEAT:-209.9146
 CYCLE:    41 TIME:   0.144 TIME LEFT: 16.53W  GRAD.:   208.207 HEAT:-204.7941
 CYCLE:    42 TIME:   0.146 TIME LEFT: 16.53W  GRAD.:   112.792 HEAT:-212.0512
 CYCLE:    43 TIME:   0.140 TIME LEFT: 16.53W  GRAD.:   247.799 HEAT:-201.7240
 CYCLE:    44 TIME:   0.148 TIME LEFT: 16.53W  GRAD.:    97.205 HEAT:-212.8909
 CYCLE:    45 TIME:   0.141 TIME LEFT: 16.53W  GRAD.:   200.920 HEAT:-204.9104
 CYCLE:    46 TIME:   0.141 TIME LEFT: 16.53W  GRAD.:    73.316 HEAT:-214.5406
 CYCLE:    47 TIME:   0.141 TIME LEFT: 16.53W  GRAD.:   189.486 HEAT:-205.0868
 CYCLE:    48 TIME:   0.146 TIME LEFT: 16.53W  GRAD.:    61.537 HEAT:-215.6835
 CYCLE:    49 TIME:   0.143 TIME LEFT: 16.53W  GRAD.:   193.354 HEAT:-204.1117
 CYCLE:    50 TIME:   0.142 TIME LEFT: 16.53W  GRAD.:    60.802 HEAT:-215.7894
 CYCLE:    51 TIME:   0.144 TIME LEFT: 16.53W  GRAD.:   166.897 HEAT:-206.2894
 CYCLE:    52 TIME:   0.142 TIME LEFT: 16.53W  GRAD.:    60.544 HEAT:-216.1252
 CYCLE:    53 TIME:   0.142 TIME LEFT: 16.53W  GRAD.:   160.699 HEAT:-206.8409
 CYCLE:    54 TIME:   0.144 TIME LEFT: 16.53W  GRAD.:    73.362 HEAT:-215.8637
 CYCLE:    55 TIME:   0.143 TIME LEFT: 16.53W  GRAD.:   150.434 HEAT:-208.1943
 CYCLE:    56 TIME:   0.164 TIME LEFT: 16.53W  GRAD.:    55.775 HEAT:-216.9366
 CYCLE:    57 TIME:   0.166 TIME LEFT: 16.53W  GRAD.:   150.785 HEAT:-208.1461
 CYCLE:    58 TIME:   0.168 TIME LEFT: 16.53W  GRAD.:    65.608 HEAT:-216.8296
 CYCLE:    59 TIME:   0.142 TIME LEFT: 16.53W  GRAD.:   143.845 HEAT:-209.4397
 CYCLE:    60 TIME:   0.143 TIME LEFT: 16.53W  GRAD.:    62.251 HEAT:-217.3890
 CYCLE:    61 TIME:   0.142 TIME LEFT: 16.53W  GRAD.:   165.433 HEAT:-207.7123
 CYCLE:    62 TIME:   0.141 TIME LEFT: 16.53W  GRAD.:    56.982 HEAT:-217.8229
 CYCLE:    63 TIME:   0.143 TIME LEFT: 16.53W  GRAD.:   174.846 HEAT:-207.3296
 CYCLE:    64 TIME:   0.142 TIME LEFT: 16.53W  GRAD.:    56.232 HEAT:-218.4282
 CYCLE:    65 TIME:   0.142 TIME LEFT: 16.53W  GRAD.:   137.263 HEAT:-210.5050
 CYCLE:    66 TIME:   0.145 TIME LEFT: 16.53W  GRAD.:    43.870 HEAT:-219.3975
 CYCLE:    67 TIME:   0.140 TIME LEFT: 16.53W  GRAD.:   194.757 HEAT:-205.4482
 CYCLE:    68 TIME:   0.147 TIME LEFT: 16.53W  GRAD.:    34.656 HEAT:-219.8889
 CYCLE:    69 TIME:   0.139 TIME LEFT: 16.53W  GRAD.:   178.195 HEAT:-209.2596
 CYCLE:    70 TIME:   0.147 TIME LEFT: 16.53W  GRAD.:    35.725 HEAT:-220.2027
 CYCLE:    71 TIME:   0.141 TIME LEFT: 16.53W  GRAD.:   141.829 HEAT:-212.0527
 CYCLE:    72 TIME:   0.136 TIME LEFT: 16.53W  GRAD.:    35.334 HEAT:-220.7444
 CYCLE:    73 TIME:   0.142 TIME LEFT: 16.53W  GRAD.:   140.295 HEAT:-212.4428
 CYCLE:    74 TIME:   0.143 TIME LEFT: 16.53W  GRAD.:    23.315 HEAT:-221.4186
 CYCLE:    75 TIME:   0.137 TIME LEFT: 16.53W  GRAD.:   100.482 HEAT:-217.9384
 CYCLE:    76 TIME:   0.134 TIME LEFT: 16.53W  GRAD.:    21.103 HEAT:-222.1494
 CYCLE:    77 TIME:   0.135 TIME LEFT: 16.53W  GRAD.:    71.118 HEAT:-220.3426
 CYCLE:    78 TIME:   0.136 TIME LEFT: 16.53W  GRAD.:    28.351 HEAT:-222.5310
 CYCLE:    79 TIME:   0.136 TIME LEFT: 16.53W  GRAD.:    99.191 HEAT:-218.9071
 CYCLE:    80 TIME:   0.137 TIME LEFT: 16.53W  GRAD.:    20.516 HEAT:-223.6050
 CYCLE:    81 TIME:   0.142 TIME LEFT: 16.53W  GRAD.:    76.241 HEAT:-221.9926
 CYCLE:    82 TIME:   0.136 TIME LEFT: 16.53W  GRAD.:    23.079 HEAT:-224.6641
 CYCLE:    83 TIME:   0.142 TIME LEFT: 16.53W  GRAD.:    71.449 HEAT:-222.9838
 CYCLE:    84 TIME:   0.136 TIME LEFT: 16.53W  GRAD.:    27.794 HEAT:-225.4563
 CYCLE:    85 TIME:   0.139 TIME LEFT: 16.53W  GRAD.:    90.233 HEAT:-222.2897
 CYCLE:    86 TIME:   0.157 TIME LEFT: 16.53W  GRAD.:    27.332 HEAT:-225.9263
 CYCLE:    87 TIME:   0.172 TIME LEFT: 16.53W  GRAD.:    92.503 HEAT:-222.7514
 CYCLE:    88 TIME:   0.160 TIME LEFT: 16.53W  GRAD.:    31.689 HEAT:-226.3067
 CYCLE:    89 TIME:   0.151 TIME LEFT: 16.53W  GRAD.:   100.835 HEAT:-221.8574
 CYCLE:    90 TIME:   0.135 TIME LEFT: 16.53W  GRAD.:    23.750 HEAT:-226.6910
 CYCLE:    91 TIME:   0.141 TIME LEFT: 16.53W  GRAD.:    99.527 HEAT:-222.4464
 CYCLE:    92 TIME:   0.140 TIME LEFT: 16.53W  GRAD.:    16.187 HEAT:-227.0300
 CYCLE:    93 TIME:   0.136 TIME LEFT: 16.53W  GRAD.:    63.865 HEAT:-225.5129
 CYCLE:    94 TIME:   0.133 TIME LEFT: 16.53W  GRAD.:    13.238 HEAT:-227.1929
 CYCLE:    95 TIME:   0.133 TIME LEFT: 16.53W  GRAD.:    41.396 HEAT:-226.4588
 CYCLE:    96 TIME:   0.133 TIME LEFT: 16.53W  GRAD.:    12.578 HEAT:-227.3106
 CYCLE:    97 TIME:   0.136 TIME LEFT: 16.53W  GRAD.:    48.472 HEAT:-226.4413
 CYCLE:    98 TIME:   0.131 TIME LEFT: 16.53W  GRAD.:     8.422 HEAT:-227.4851
 CYCLE:    99 TIME:   0.133 TIME LEFT: 16.53W  GRAD.:    31.521 HEAT:-227.0361
 CYCLE:   100 TIME:   0.129 TIME LEFT: 16.53W  GRAD.:     6.710 HEAT:-227.5557
 CYCLE:   101 TIME:   0.131 TIME LEFT: 16.53W  GRAD.:    27.279 HEAT:-227.2539
 CYCLE:   102 TIME:   0.128 TIME LEFT: 16.53W  GRAD.:     3.888 HEAT:-227.5827
 CYCLE:   103 TIME:   0.129 TIME LEFT: 16.53W  GRAD.:    12.719 HEAT:-227.5659
 CYCLE:   104 TIME:   0.128 TIME LEFT: 16.53W  GRAD.:     6.052 HEAT:-227.6242
 CYCLE:   105 TIME:   0.133 TIME LEFT: 16.53W  GRAD.:    17.901 HEAT:-227.5256
 CYCLE:   106 TIME:   0.128 TIME LEFT: 16.53W  GRAD.:     4.545 HEAT:-227.6888
 CYCLE:   107 TIME:   0.128 TIME LEFT: 16.53W  GRAD.:    17.195 HEAT:-227.6300
 CYCLE:   108 TIME:   0.128 TIME LEFT: 16.53W  GRAD.:     5.410 HEAT:-227.7614
 CYCLE:   109 TIME:   0.133 TIME LEFT: 16.53W  GRAD.:    11.973 HEAT:-227.7551
 CYCLE:   110 TIME:   0.127 TIME LEFT: 16.53W  GRAD.:     5.202 HEAT:-227.8338
 CYCLE:   111 TIME:   0.133 TIME LEFT: 16.53W  GRAD.:    20.411 HEAT:-227.8141
 CYCLE:   112 TIME:   0.127 TIME LEFT: 16.53W  GRAD.:     6.918 HEAT:-228.0209
 CYCLE:   113 TIME:   0.132 TIME LEFT: 16.53W  GRAD.:    17.318 HEAT:-227.9416
 CYCLE:   114 TIME:   0.128 TIME LEFT: 16.53W  GRAD.:    10.004 HEAT:-228.1186
 CYCLE:   115 TIME:   0.132 TIME LEFT: 16.53W  GRAD.:    36.493 HEAT:-227.7478
 CYCLE:   116 TIME:   0.132 TIME LEFT: 16.53W  GRAD.:     6.781 HEAT:-228.1908
 CYCLE:   117 TIME:   0.133 TIME LEFT: 16.53W  GRAD.:    12.008 HEAT:-228.2114
 CYCLE:   118 TIME:   0.133 TIME LEFT: 16.53W  GRAD.:    13.272 HEAT:-228.2167
 CYCLE:   119 TIME:   0.133 TIME LEFT: 16.53W  GRAD.:    25.307 HEAT:-228.0210
 CYCLE:   120 TIME:   0.132 TIME LEFT: 16.53W  GRAD.:    11.258 HEAT:-228.4104
 CYCLE:   121 TIME:   0.132 TIME LEFT: 16.53W  GRAD.:    16.925 HEAT:-228.3449
 CYCLE:   122 TIME:   0.133 TIME LEFT: 16.53W  GRAD.:     9.590 HEAT:-228.3401
 CYCLE:   123 TIME:   0.132 TIME LEFT: 16.53W  GRAD.:    29.715 HEAT:-228.0604
 CYCLE:   124 TIME:   0.132 TIME LEFT: 16.53W  GRAD.:     8.172 HEAT:-228.4306
 CYCLE:   125 TIME:   0.132 TIME LEFT: 16.53W  GRAD.:    16.284 HEAT:-228.3649
 CYCLE:   126 TIME:   0.132 TIME LEFT: 16.53W  GRAD.:     7.371 HEAT:-228.4995
 CYCLE:   127 TIME:   0.128 TIME LEFT: 16.53W  GRAD.:    12.782 HEAT:-228.4620
 CYCLE:   128 TIME:   0.127 TIME LEFT: 16.53W  GRAD.:     3.204 HEAT:-228.5662
 CYCLE:   129 TIME:   0.133 TIME LEFT: 16.53W  GRAD.:     5.243 HEAT:-228.8082
 CYCLE:   130 TIME:   0.133 TIME LEFT: 16.53W  GRAD.:     6.139 HEAT:-228.8587
 CYCLE:   131 TIME:   0.134 TIME LEFT: 16.53W  GRAD.:     5.745 HEAT:-228.9594
 CYCLE:   132 TIME:   0.132 TIME LEFT: 16.53W  GRAD.:     5.784 HEAT:-229.0415
 CYCLE:   133 TIME:   0.129 TIME LEFT: 16.53W  GRAD.:     3.099 HEAT:-229.0621
 CYCLE:   134 TIME:   0.132 TIME LEFT: 16.53W  GRAD.:     3.690 HEAT:-229.1160
 CYCLE:   135 TIME:   0.133 TIME LEFT: 16.53W  GRAD.:     4.724 HEAT:-229.1456
 CYCLE:   136 TIME:   0.134 TIME LEFT: 16.53W  GRAD.:     5.002 HEAT:-229.2406
 CYCLE:   137 TIME:   0.133 TIME LEFT: 16.53W  GRAD.:     5.815 HEAT:-229.2234
 CYCLE:   138 TIME:   0.132 TIME LEFT: 16.53W  GRAD.:     4.214 HEAT:-229.2915
 CYCLE:   139 TIME:   0.133 TIME LEFT: 16.53W  GRAD.:     6.763 HEAT:-229.3776
 CYCLE:   140 TIME:   0.134 TIME LEFT: 16.53W  GRAD.:     8.671 HEAT:-229.4806
 CYCLE:   141 TIME:   0.133 TIME LEFT: 16.53W  GRAD.:    12.754 HEAT:-229.5532
 CYCLE:   142 TIME:   0.133 TIME LEFT: 16.53W  GRAD.:     7.757 HEAT:-229.6788
 CYCLE:   143 TIME:   0.127 TIME LEFT: 16.53W  GRAD.:     5.188 HEAT:-229.7499
 CYCLE:   144 TIME:   0.132 TIME LEFT: 16.53W  GRAD.:     5.815 HEAT:-229.8749
 CYCLE:   145 TIME:   0.132 TIME LEFT: 16.53W  GRAD.:     8.473 HEAT:-230.0318
 CYCLE:   146 TIME:   0.132 TIME LEFT: 16.53W  GRAD.:     4.567 HEAT:-230.1037
 CYCLE:   147 TIME:   0.132 TIME LEFT: 16.53W  GRAD.:     3.777 HEAT:-230.1522
 CYCLE:   148 TIME:   0.132 TIME LEFT: 16.53W  GRAD.:     6.209 HEAT:-230.2148
 CYCLE:   149 TIME:   0.133 TIME LEFT: 16.53W  GRAD.:     6.954 HEAT:-230.3101
 CYCLE:   150 TIME:   0.131 TIME LEFT: 16.53W  GRAD.:     4.975 HEAT:-230.4233
 CYCLE:   151 TIME:   0.132 TIME LEFT: 16.53W  GRAD.:     5.410 HEAT:-230.4932
 CYCLE:   152 TIME:   0.132 TIME LEFT: 16.53W  GRAD.:     5.415 HEAT:-230.5799
 CYCLE:   153 TIME:   0.132 TIME LEFT: 16.53W  GRAD.:     5.962 HEAT:-230.6356
 CYCLE:   154 TIME:   0.133 TIME LEFT: 16.53W  GRAD.:     5.873 HEAT:-230.7337
 CYCLE:   155 TIME:   0.126 TIME LEFT: 16.53W  GRAD.:     5.112 HEAT:-230.7929
 CYCLE:   156 TIME:   0.133 TIME LEFT: 16.53W  GRAD.:     4.732 HEAT:-230.8563
 CYCLE:   157 TIME:   0.131 TIME LEFT: 16.53W  GRAD.:     5.055 HEAT:-230.8616
 CYCLE:   158 TIME:   0.131 TIME LEFT: 16.53W  GRAD.:     5.766 HEAT:-230.8933
 CYCLE:   159 TIME:   0.132 TIME LEFT: 16.53W  GRAD.:     6.672 HEAT:-231.0054
 CYCLE:   160 TIME:   0.132 TIME LEFT: 16.53W  GRAD.:     5.851 HEAT:-231.1837
 CYCLE:   161 TIME:   0.131 TIME LEFT: 16.53W  GRAD.:     6.843 HEAT:-231.2778
 CYCLE:   162 TIME:   0.133 TIME LEFT: 16.53W  GRAD.:     7.171 HEAT:-231.4018
 CYCLE:   163 TIME:   0.132 TIME LEFT: 16.53W  GRAD.:     4.886 HEAT:-231.4824
 CYCLE:   164 TIME:   0.133 TIME LEFT: 16.53W  GRAD.:     4.881 HEAT:-231.5413
 CYCLE:   165 TIME:   0.127 TIME LEFT: 16.53W  GRAD.:     4.117 HEAT:-231.5653
 CYCLE:   166 TIME:   0.132 TIME LEFT: 16.53W  GRAD.:     3.971 HEAT:-231.6067
 CYCLE:   167 TIME:   0.127 TIME LEFT: 16.53W  GRAD.:     4.146 HEAT:-231.6222
 CYCLE:   168 TIME:   0.127 TIME LEFT: 16.53W  GRAD.:     3.718 HEAT:-231.6357
 CYCLE:   169 TIME:   0.126 TIME LEFT: 16.53W  GRAD.:     2.832 HEAT:-231.6070
 CYCLE:   170 TIME:   0.131 TIME LEFT: 16.53W  GRAD.:     3.549 HEAT:-231.6563
 CYCLE:   171 TIME:   0.131 TIME LEFT: 16.53W  GRAD.:     2.665 HEAT:-231.6234
 CYCLE:   172 TIME:   0.131 TIME LEFT: 16.53W  GRAD.:     2.566 HEAT:-231.6235
 CYCLE:   173 TIME:   0.131 TIME LEFT: 16.53W  GRAD.:     2.134 HEAT:-231.5773
 CYCLE:   174 TIME:   0.131 TIME LEFT: 16.53W  GRAD.:     2.050 HEAT:-231.6193
 CYCLE:   175 TIME:   0.131 TIME LEFT: 16.53W  GRAD.:     2.201 HEAT:-231.5996
 CYCLE:   176 TIME:   0.131 TIME LEFT: 16.53W  GRAD.:     1.967 HEAT:-231.6554
 CYCLE:   177 TIME:   0.132 TIME LEFT: 16.53W  GRAD.:     1.758 HEAT:-231.6775
 CYCLE:   178 TIME:   0.132 TIME LEFT: 16.53W  GRAD.:     1.502 HEAT:-231.6937
 CYCLE:   179 TIME:   0.131 TIME LEFT: 16.53W  GRAD.:     1.608 HEAT:-231.6798
 CYCLE:   180 TIME:   0.131 TIME LEFT: 16.53W  GRAD.:     1.133 HEAT:-231.6850
 CYCLE:   181 TIME:   0.130 TIME LEFT: 16.53W  GRAD.:     0.943 HEAT:-231.6912
 CYCLE:   182 TIME:   0.131 TIME LEFT: 16.53W  GRAD.:     0.950 HEAT:-231.6920
 CYCLE:   183 TIME:   0.132 TIME LEFT: 16.53W  GRAD.:     0.820 HEAT:-231.6888
 CYCLE:   184 TIME:   0.130 TIME LEFT: 16.53W  GRAD.:     0.959 HEAT:-231.6999
 CYCLE:   185 TIME:   0.131 TIME LEFT: 16.53W  GRAD.:     0.924 HEAT:-231.6990
 CYCLE:   186 TIME:   0.135 TIME LEFT: 16.53W  GRAD.:     1.283 HEAT:-231.7088
 CYCLE:   187 TIME:   0.132 TIME LEFT: 16.53W  GRAD.:     1.345 HEAT:-231.7096
 CYCLE:   188 TIME:   0.131 TIME LEFT: 16.53W  GRAD.:     1.296 HEAT:-231.7052
 CYCLE:   189 TIME:   0.132 TIME LEFT: 16.53W  GRAD.:     1.128 HEAT:-231.7000
 CYCLE:   190 TIME:   0.135 TIME LEFT: 16.53W  GRAD.:     1.088 HEAT:-231.7023
 CYCLE:   191 TIME:   0.131 TIME LEFT: 16.53W  GRAD.:     0.747 HEAT:-231.7104
 CYCLE:   192 TIME:   0.131 TIME LEFT: 16.53W  GRAD.:     0.807 HEAT:-231.7120
 CYCLE:   193 TIME:   0.131 TIME LEFT: 16.53W  GRAD.:     0.990 HEAT:-231.7203
 CYCLE:   194 TIME:   0.133 TIME LEFT: 16.53W  GRAD.:     1.134 HEAT:-231.7195
 CYCLE:   195 TIME:   0.131 TIME LEFT: 16.53W  GRAD.:     1.152 HEAT:-231.7182
 CYCLE:   196 TIME:   0.132 TIME LEFT: 16.53W  GRAD.:     0.816 HEAT:-231.6973
 CYCLE:   197 TIME:   0.131 TIME LEFT: 16.53W  GRAD.:     0.656 HEAT:-231.6909
 CYCLE:   198 TIME:   0.131 TIME LEFT: 16.53W  GRAD.:     0.761 HEAT:-231.7052
 CYCLE:   199 TIME:   0.132 TIME LEFT: 16.53W  GRAD.:     0.815 HEAT:-231.7129
 CYCLE:   200 TIME:   0.131 TIME LEFT: 16.53W  GRAD.:     0.949 HEAT:-231.7099
 CYCLE:   201 TIME:   0.132 TIME LEFT: 16.53W  GRAD.:     0.744 HEAT:-231.6837
 CYCLE:   202 TIME:   0.131 TIME LEFT: 16.53W  GRAD.:     0.701 HEAT:-231.6811
 CYCLE:   203 TIME:   0.131 TIME LEFT: 16.53W  GRAD.:     0.652 HEAT:-231.6827
 CYCLE:   204 TIME:   0.131 TIME LEFT: 16.53W  GRAD.:     0.621 HEAT:-231.6856
 CYCLE:   205 TIME:   0.131 TIME LEFT: 16.53W  GRAD.:     0.630 HEAT:-231.6884
 CYCLE:   206 TIME:   0.132 TIME LEFT: 16.53W  GRAD.:     0.627 HEAT:-231.6815
 CYCLE:   207 TIME:   0.131 TIME LEFT: 16.53W  GRAD.:     0.563 HEAT:-231.6871
 CYCLE:   208 TIME:   0.132 TIME LEFT: 16.53W  GRAD.:     0.537 HEAT:-231.6969
 CYCLE:   209 TIME:   0.131 TIME LEFT: 16.53W  GRAD.:     0.492 HEAT:-231.6990
 CYCLE:   210 TIME:   0.132 TIME LEFT: 16.53W  GRAD.:     0.472 HEAT:-231.7004
 CYCLE:   211 TIME:   0.131 TIME LEFT: 16.53W  GRAD.:     0.403 HEAT:-231.7008
 CYCLE:   212 TIME:   0.130 TIME LEFT: 16.53W  GRAD.:     0.353 HEAT:-231.6956
 CYCLE:   213 TIME:   0.131 TIME LEFT: 16.53W  GRAD.:     0.306 HEAT:-231.6919
 CYCLE:   214 TIME:   0.130 TIME LEFT: 16.53W  GRAD.:     0.298 HEAT:-231.6984
 CYCLE:   215 TIME:   0.126 TIME LEFT: 16.53W  GRAD.:     0.283 HEAT:-231.6969
 CYCLE:   216 TIME:   0.126 TIME LEFT: 16.53W  GRAD.:     0.312 HEAT:-231.6978
 CYCLE:   217 TIME:   0.131 TIME LEFT: 16.53W  GRAD.:     0.383 HEAT:-231.6998
 CYCLE:   218 TIME:   0.126 TIME LEFT: 16.53W  GRAD.:     0.272 HEAT:-231.7009
 CYCLE:   219 TIME:   0.130 TIME LEFT: 16.53W  GRAD.:     0.226 HEAT:-231.7157
 CYCLE:   220 TIME:   0.126 TIME LEFT: 16.53W  GRAD.:     0.205 HEAT:-231.7162
 CYCLE:   221 TIME:   0.125 TIME LEFT: 16.53W  GRAD.:     0.186 HEAT:-231.7160
 CYCLE:   222 TIME:   0.130 TIME LEFT: 16.53W  GRAD.:     0.178 HEAT:-231.7141
 CYCLE:   223 TIME:   0.126 TIME LEFT: 16.53W  GRAD.:     0.179 HEAT:-231.7135
 CYCLE:   224 TIME:   0.126 TIME LEFT: 16.53W  GRAD.:     0.198 HEAT:-231.7139
 CYCLE:   225 TIME:   0.126 TIME LEFT: 16.53W  GRAD.:     0.173 HEAT:-231.7151
 CYCLE:   226 TIME:   0.125 TIME LEFT: 16.53W  GRAD.:     0.165 HEAT:-231.7200
 CYCLE:   227 TIME:   0.121 TIME LEFT: 16.53W  GRAD.:     0.130 HEAT:-231.7178

     RMS GRADIENT =  0.12979  IS LESS THAN CUTOFF =  0.15000



 -------------------------------------------------------------------------------
 PM6 T=31535576 DUMP=4320 XYZ EPS=78.40 RSOLV=1.30 MULLIK SYBYL +
 CHARGE=0 RELSCF=0.1 LET DDMIN=0.0 GNORM=0.15
 SJ000002349-1_T001S001I001C07: Geometry optimization step



     GEOMETRY OPTIMISED USING EIGENVECTOR FOLLOWING (EF).     
     SCF FIELD WAS ACHIEVED                                   


                               PM6     CALCULATION
                                                       MOPAC2009 (Version: 9.015L)
                                                       Tue Sep  6 16:28:27 2011




          FINAL HEAT OF FORMATION =       -231.71784 KCAL =    -969.50742 KJ
          VAN DER WAALS AREA      =        372.21 SQUARE ANGSTROMS


          TOTAL ENERGY            =      -4629.83998 EV
          ELECTRONIC ENERGY       =      -8609.14400 EV  POINT GROUP:     C1  
          CORE-CORE REPULSION     =       3979.30403 EV
          DIELECTRIC ENERGY       =         -1.40990 EV
          COSMO AREA              =        372.21 SQUARE ANGSTROMS
          COSMO VOLUME            =        459.59 CUBIC ANGSTROMS

          IONIZATION POTENTIAL    =          9.161986 EV
          HOMO LUMO ENERGIES (EV) =         -9.162 -0.960
          NO. OF FILLED LEVELS    =         74
          MOLECULAR WEIGHT        =        382.455

          MOLECULAR DIMENSIONS (Angstroms)

            Atom       Atom       Distance
            H    40    H    38    10.97902
            H    53    H    46    10.81089
            H    36    H    48     5.26527


          SCF CALCULATIONS        =        229
          COMPUTATION TIME        =         31.162 SECONDS




   ATOM   CHEMICAL          X               Y              Z
  NUMBER   SYMBOL      (ANGSTROMS)     (ANGSTROMS)    (ANGSTROMS)
 
     1       C          3.3624758  *   -5.981790  *    2.256226  *
     2       C          2.3102019  *   -4.941439  *    2.744885  *
     3       C          1.6428310  *   -4.278386  *    1.601356  *
     4       C          1.4923286  *   -4.776376  *    0.350087  *
     5       C          0.6982548  *   -4.045216  *   -0.707950  *
     6       C          0.5175640  *   -2.600255  *   -0.310764  *
     7       C          0.7067528  *   -2.180185  *    0.961030  *
     8       C          0.4761115  *   -0.817438  *    1.490986  *
     9       C         -0.5280402  *   -0.035798  *    0.592145  *
    10       C         -0.1156139  *   -0.205738  *   -0.891043  *
    11       C          0.1030543  *   -1.627894  *   -1.334387  *
    12       O         -0.0196696  *   -1.933655  *   -2.514394  *
    13       O          1.1823337  *   -3.018800  *    1.970114  *
    14       C          2.1238567  *   -6.053748  *    0.013432  *
    15       O          2.1564109  *   -6.482693  *   -1.143197  *
    16       C          2.7377001  *   -6.846364  *    1.130415  *
    17       H          1.5411801  *   -5.442043  *    3.382840  *
    18       H          2.7869469  *   -4.203826  *    3.430360  *
    19       H          1.2776664  *   -4.074891  *   -1.676560  *
    20       H          0.1154118  *   -0.842618  *    2.544665  *
    21       H          1.4472027  *   -0.268934  *    1.553161  *
    22       H         -0.8662640  *    0.286950  *   -1.546651  *
    23       H          0.8243512  *    0.363130  *   -1.088027  *
    24       H          3.4992927  *   -7.553534  *    0.734414  *
    25       H          1.9505575  *   -7.513309  *    1.558066  *
    26       C         -0.6402628  *   -4.721766  *   -0.927878  *
    27       C         -0.8106753  *   -5.639718  *   -1.989297  *
    28       C         -2.0496281  *   -6.223988  *   -2.285794  *
    29       C         -3.1293480  *   -5.888444  *   -1.461733  *
    30       H         -2.1529125  *   -6.913654  *   -3.119427  *
    31       C         -2.9980953  *   -5.013825  *   -0.370173  *
    32       C         -1.7503898  *   -4.442508  *   -0.121704  *
    33       H         -3.8571340  *   -4.790017  *    0.257612  *
    34       H         -1.6409411  *   -3.754776  *    0.722808  *
    35       O          0.2150305  *   -6.014866  *   -2.808258  *
    36       H          1.1399290  *   -5.792193  *   -2.397810  *
    37       O         -4.3818612  *   -6.398995  *   -1.661771  *
    38       H         -4.4241814  *   -7.018012  *   -2.454291  *
    39       C          4.6029204  *   -5.252090  *    1.725201  *
    40       H          5.0788671  *   -4.644273  *    2.505183  *
    41       H          5.3628990  *   -5.958604  *    1.368139  *
    42       H          4.3689187  *   -4.580739  *    0.891851  *
    43       C          3.7473404  *   -6.885370  *    3.433029  *
    44       H          4.1780015  *   -6.308566  *    4.261336  *
    45       H          2.8879075  *   -7.435419  *    3.835278  *
    46       H          4.4977717  *   -7.630476  *    3.139717  *
    47       C         -1.9481361  *   -0.576296  *    0.807169  *
    48       H         -2.2666224  *   -0.470850  *    1.851915  *
    49       H         -2.6808616  *   -0.032846  *    0.197174  *
    50       H         -2.0341992  *   -1.636670  *    0.547111  *
    51       C         -0.4717450  *    1.450024  *    0.967433  *
    52       H          0.5279680  *    1.878029  *    0.825386  *
    53       H         -1.1652132  *    2.044556  *    0.359234  *
    54       H         -0.7475500  *    1.612386  *    2.016812  *

           Empirical Formula: C23 H26 O5  =    54 atoms



      MOLECULAR POINT GROUP   :   C1  


                  EIGENVALUES  
 -32.28066 -31.94738 -31.78570 -31.12274 -30.96087 -30.57255 -30.23000 -29.85026
 -28.83117 -27.86411 -26.63258 -26.39061 -26.08078 -25.54724 -25.15487 -24.54209
 -24.47297 -24.06190 -23.39944 -22.44145 -22.00620 -21.70144 -21.20625 -20.38601
 -19.75163 -19.35119 -18.48596 -17.86976 -17.61235 -17.30123 -17.01075 -16.86887
 -16.66051 -16.28989 -16.04528 -15.91898 -15.83905 -15.53923 -15.49483 -15.32348
 -15.20371 -15.13157 -14.90541 -14.82012 -14.68575 -14.51732 -14.38402 -14.35269
 -14.23186 -14.07115 -13.75520 -13.57689 -13.46828 -13.40763 -13.27865 -13.11442
 -13.03728 -12.97013 -12.87986 -12.83779 -12.34392 -12.31691 -12.28735 -12.10192
 -12.02003 -11.99492 -11.89911 -11.80047 -10.99520 -10.81842 -10.63016  -9.93600
  -9.79665  -9.16199  -0.96009  -0.36364  -0.11676   0.03237   0.51658   0.95015
   1.11764   1.90725   2.04054   2.24784   2.33702   2.55444   2.79997   2.87295
   3.12586   3.16116   3.27710   3.38971   3.46180   3.53582   3.61561   3.67389
   3.75317   3.84627   3.88887   3.94337   3.98732   4.07935   4.14705   4.19755
   4.25455   4.31822   4.43652   4.55941   4.60512   4.73065   4.78549   5.09359
   5.10948   5.13101   5.19813   5.25126   5.25747   5.31157   5.51602   5.62864
   5.72971   5.77068   5.77688   5.77918   5.79555   5.80094   5.80993   5.83988
   5.87437   5.90899   6.03699   6.04841   6.10239   6.15766   6.74920   6.75753
   6.85413   6.86369


              NET ATOMIC CHARGES AND DIPOLE CONTRIBUTIONS

  ATOM NO.   TYPE          CHARGE      No. of ELECS.   s-Pop       p-Pop       
    1          C           0.329004        3.6710     1.06718     2.60381
    2          C          -0.460795        4.4608     1.11104     3.34975
    3          C           0.467323        3.5327     1.10731     2.42536
    4          C          -0.502009        4.5020     1.11680     3.38521
    5          C           0.141890        3.8581     1.05204     2.80607
    6          C          -0.479277        4.4793     1.11777     3.36151
    7          C           0.444741        3.5553     1.10756     2.44770
    8          C          -0.454551        4.4546     1.11010     3.34445
    9          C           0.326453        3.6735     1.06666     2.60688
   10          C          -0.545979        4.5460     1.12388     3.42210
   11          C           0.672041        3.3280     1.09022     2.23774
   12          O          -0.628037        6.6280     1.85210     4.77593
   13          O          -0.362849        6.3628     1.83597     4.52687
   14          C           0.672683        3.3273     1.09291     2.23440
   15          O          -0.641186        6.6412     1.85149     4.78970
   16          C          -0.538888        4.5389     1.12267     3.41622
   17          H           0.215419        0.7846     0.78458
   18          H           0.211764        0.7882     0.78824
   19          H           0.141375        0.8586     0.85863
   20          H           0.210659        0.7893     0.78934
   21          H           0.213022        0.7870     0.78698
   22          H           0.206845        0.7932     0.79315
   23          H           0.214378        0.7856     0.78562
   24          H           0.208507        0.7915     0.79149
   25          H           0.218149        0.7819     0.78185
   26          C          -0.314421        4.3144     1.10232     3.21210
   27          C           0.438572        3.5614     1.07611     2.48532
   28          C          -0.539354        4.5394     1.11027     3.42909
   29          C           0.435325        3.5647     1.07462     2.49005
   30          H           0.212158        0.7878     0.78784
   31          C          -0.432383        4.4324     1.10474     3.32764
   32          C           0.060077        3.9399     1.10395     2.83597
   33          H           0.195760        0.8042     0.80424
   34          H           0.151601        0.8484     0.84840
   35          O          -0.552282        6.5523     1.81610     4.73619
   36          H           0.382417        0.6176     0.61758
   37          O          -0.517051        6.5171     1.80641     4.71064
   38          H           0.374495        0.6255     0.62550
   39          C          -0.562205        4.5622     1.09670     3.46551
   40          H           0.173795        0.8262     0.82620
   41          H           0.174359        0.8256     0.82564
   42          H           0.166822        0.8332     0.83318
   43          C          -0.555448        4.5554     1.09578     3.45966
   44          H           0.172955        0.8270     0.82704
   45          H           0.171195        0.8288     0.82881
   46          H           0.173558        0.8264     0.82644
   47          C          -0.556959        4.5570     1.09639     3.46057
   48          H           0.172813        0.8272     0.82719
   49          H           0.173747        0.8263     0.82625
   50          H           0.160107        0.8399     0.83989
   51          C          -0.555740        4.5557     1.09591     3.45983
   52          H           0.170100        0.8299     0.82990
   53          H           0.173311        0.8267     0.82669
   54          H           0.171994        0.8280     0.82801
 DIPOLE           X         Y         Z       TOTAL
 POINT-CHG.     3.627     4.979    13.367    14.718
 HYBRID         0.084    -0.455    -0.443     0.641
 SUM            3.712     4.524    12.924    14.187


          CARTESIAN COORDINATES 

    NO.       ATOM               X         Y         Z

     1         C                  3.3625   -5.9818    2.2562
     2         C                  2.3102   -4.9414    2.7449
     3         C                  1.6428   -4.2784    1.6014
     4         C                  1.4923   -4.7764    0.3501
     5         C                  0.6983   -4.0452   -0.7080
     6         C                  0.5176   -2.6003   -0.3108
     7         C                  0.7068   -2.1802    0.9610
     8         C                  0.4761   -0.8174    1.4910
     9         C                 -0.5280   -0.0358    0.5921
    10         C                 -0.1156   -0.2057   -0.8910
    11         C                  0.1031   -1.6279   -1.3344
    12         O                 -0.0197   -1.9337   -2.5144
    13         O                  1.1823   -3.0188    1.9701
    14         C                  2.1239   -6.0537    0.0134
    15         O                  2.1564   -6.4827   -1.1432
    16         C                  2.7377   -6.8464    1.1304
    17         H                  1.5412   -5.4420    3.3828
    18         H                  2.7869   -4.2038    3.4304
    19         H                  1.2777   -4.0749   -1.6766
    20         H                  0.1154   -0.8426    2.5447
    21         H                  1.4472   -0.2689    1.5532
    22         H                 -0.8663    0.2869   -1.5467
    23         H                  0.8244    0.3631   -1.0880
    24         H                  3.4993   -7.5535    0.7344
    25         H                  1.9506   -7.5133    1.5581
    26         C                 -0.6403   -4.7218   -0.9279
    27         C                 -0.8107   -5.6397   -1.9893
    28         C                 -2.0496   -6.2240   -2.2858
    29         C                 -3.1293   -5.8884   -1.4617
    30         H                 -2.1529   -6.9137   -3.1194
    31         C                 -2.9981   -5.0138   -0.3702
    32         C                 -1.7504   -4.4425   -0.1217
    33         H                 -3.8571   -4.7900    0.2576
    34         H                 -1.6409   -3.7548    0.7228
    35         O                  0.2150   -6.0149   -2.8083
    36         H                  1.1399   -5.7922   -2.3978
    37         O                 -4.3819   -6.3990   -1.6618
    38         H                 -4.4242   -7.0180   -2.4543
    39         C                  4.6029   -5.2521    1.7252
    40         H                  5.0789   -4.6443    2.5052
    41         H                  5.3629   -5.9586    1.3681
    42         H                  4.3689   -4.5807    0.8919
    43         C                  3.7473   -6.8854    3.4330
    44         H                  4.1780   -6.3086    4.2613
    45         H                  2.8879   -7.4354    3.8353
    46         H                  4.4978   -7.6305    3.1397
    47         C                 -1.9481   -0.5763    0.8072
    48         H                 -2.2666   -0.4708    1.8519
    49         H                 -2.6809   -0.0328    0.1972
    50         H                 -2.0342   -1.6367    0.5471
    51         C                 -0.4717    1.4500    0.9674
    52         H                  0.5280    1.8780    0.8254
    53         H                 -1.1652    2.0446    0.3592
    54         H                 -0.7476    1.6124    2.0168


          ATOMIC ORBITAL ELECTRON POPULATIONS

   1.06718   0.86776   0.86164   0.87441   1.11104   1.13829   1.14039   1.07107
   1.10731   0.77019   0.74398   0.91119   1.11680   1.21785   1.11379   1.05356
   1.05204   0.93177   0.87047   1.00383   1.11777   1.26159   1.06525   1.03466
   1.10756   0.77482   0.83880   0.83407   1.11010   1.17447   1.01194   1.15804
   1.06666   0.87358   0.89183   0.84148   1.12388   1.21720   1.08603   1.11887
   1.09022   0.59829   0.84465   0.79480   1.85210   1.56332   1.85051   1.36210
   1.83597   1.71146   1.34635   1.46907   1.09291   0.64452   0.78556   0.80432
   1.85149   1.64724   1.74888   1.39357   1.12267   1.18864   1.13076   1.09683
   0.78458   0.78824   0.85863   0.78934   0.78698   0.79315   0.78562   0.79149
   0.78185   1.10232   1.02892   1.10984   1.07334   1.07611   0.81350   0.85089
   0.82092   1.11027   1.02187   1.22195   1.18526   1.07462   0.76471   0.83916
   0.88618   0.78784   1.10474   1.08644   1.13426   1.10694   1.10395   0.92517
   0.93499   0.97581   0.80424   0.84840   1.81610   1.34317   1.81848   1.57453
   0.61758   1.80641   1.41995   1.67615   1.61455   0.62550   1.09670   1.11353
   1.16930   1.18268   0.82620   0.82564   0.83318   1.09578   1.19118   1.15144
   1.11704   0.82704   0.82881   0.82644   1.09639   1.08789   1.17313   1.19955
   0.82719   0.82625   0.83989   1.09591   1.19819   1.06965   1.19200   0.82990
   0.82669   0.82801

           MULLIKEN POPULATION ANALYSIS



        MULLIKEN POPULATIONS AND CHARGES

      NO.  ATOM   POPULATION      CHARGE
        1    C     3.636436      0.363564
        2    C     4.580392     -0.580392
        3    C     3.507913      0.492087
        4    C     4.545645     -0.545645
        5    C     3.851380      0.148620
        6    C     4.521502     -0.521502
        7    C     3.532464      0.467536
        8    C     4.572972     -0.572972
        9    C     3.638527      0.361473
       10    C     4.672094     -0.672094
       11    C     3.280347      0.719653
       12    O     6.653940     -0.653940
       13    O     6.402192     -0.402192
       14    C     3.282118      0.717882
       15    O     6.670636     -0.670636
       16    C     4.665052     -0.665052
       17    H     0.730867      0.269133
       18    H     0.732781      0.267219
       19    H     0.819053      0.180947
       20    H     0.734443      0.265557
       21    H     0.733532      0.266468
       22    H     0.738833      0.261167
       23    H     0.732859      0.267141
       24    H     0.736383      0.263617
       25    H     0.728376      0.271624
       26    C     4.339870     -0.339870
       27    C     3.533021      0.466979
       28    C     4.617560     -0.617560
       29    C     3.540577      0.459423
       30    H     0.724111      0.275889
       31    C     4.501116     -0.501116
       32    C     3.964621      0.035379
       33    H     0.744517      0.255483
       34    H     0.801947      0.198053
       35    O     6.598977     -0.598977
       36    H     0.583892      0.416108
       37    O     6.566584     -0.566584
       38    H     0.593014      0.406986
       39    C     4.707737     -0.707737
       40    H     0.778438      0.221562
       41    H     0.777775      0.222225
       42    H     0.786384      0.213616
       43    C     4.701761     -0.701761
       44    H     0.779443      0.220557
       45    H     0.781322      0.218678
       46    H     0.778756      0.221244
       47    C     4.700329     -0.700329
       48    H     0.779574      0.220426
       49    H     0.778523      0.221477
       50    H     0.795170      0.204830
       51    C     4.701960     -0.701960
       52    H     0.782692      0.217308
       53    H     0.779040      0.220960
       54    H     0.780558      0.219442



 TOTAL CPU TIME:            31.19 SECONDS

 == MOPAC DONE ==
 *******************************************************************************
 ** Site#:  958            For non-commercial use only         Version 9.015L **
 *******************************************************************************
 ** Cite this work as: MOPAC2009, James J. P. Stewart, Stewart Computational  **
 ** Chemistry, Version 9.015L web: HTTP://OpenMOPAC.net                       **
 *******************************************************************************
 **                                                                           **
 **                                MOPAC2009                                  **
 **                                                                           **
 *******************************************************************************

                            PM6 CALCULATION RESULTS


 *******************************************************************************
 *  CALCULATION DONE:                                Tue Sep  6 16:28:27 2011  *
 *  PM6      - The PM6 Hamiltonian to be used
 *  GEO-OK   - OVERRIDE INTERATOMIC DISTANCE CHECK
 *
 *
 *
 *                 CHARGE ON SYSTEM =     0
 *
 *
 *
 *  EPS= 78.400
 *  RSOLV=  1.300
 *  OLDGEO   - PREVIOUS GEOMETRY TO BE USED
 *  T=       - A TIME OF 172800.0 SECONDS REQUESTED
 *  DUMP=N   - RESTART FILE WRITTEN EVERY  4320.000 SECONDS
 *  RELSCF   - DEFAULT SCF CRITERION MULTIPLIED BY   0.100    
 *             (DEFAULT SCFCRT= 0.00010)
 *  THERMO   - THERMODYNAMIC QUANTITIES TO BE CALCULATED
 *******************************************************************************
 PM6 DUMP=4320 RELSCF=0.1 THERMO EPS=78.40 RSOLV=1.30 +
 OLDGEO GEO-OK CHARGE=0
 SJ000002349-1_T001S001I001C07: Free energy calculation

   ATOM   CHEMICAL          X               Y              Z
  NUMBER   SYMBOL      (ANGSTROMS)     (ANGSTROMS)    (ANGSTROMS)
 
     1       C          3.3624758  *   -5.981790  *    2.256226  *
     2       C          2.3102019  *   -4.941439  *    2.744885  *
     3       C          1.6428310  *   -4.278386  *    1.601356  *
     4       C          1.4923286  *   -4.776376  *    0.350087  *
     5       C          0.6982548  *   -4.045216  *   -0.707950  *
     6       C          0.5175640  *   -2.600255  *   -0.310764  *
     7       C          0.7067528  *   -2.180185  *    0.961030  *
     8       C          0.4761115  *   -0.817438  *    1.490986  *
     9       C         -0.5280402  *   -0.035798  *    0.592145  *
    10       C         -0.1156139  *   -0.205738  *   -0.891043  *
    11       C          0.1030543  *   -1.627894  *   -1.334387  *
    12       O         -0.0196696  *   -1.933655  *   -2.514394  *
    13       O          1.1823337  *   -3.018800  *    1.970114  *
    14       C          2.1238567  *   -6.053748  *    0.013432  *
    15       O          2.1564109  *   -6.482693  *   -1.143197  *
    16       C          2.7377001  *   -6.846364  *    1.130415  *
    17       H          1.5411801  *   -5.442043  *    3.382840  *
    18       H          2.7869469  *   -4.203826  *    3.430360  *
    19       H          1.2776664  *   -4.074891  *   -1.676560  *
    20       H          0.1154118  *   -0.842618  *    2.544665  *
    21       H          1.4472027  *   -0.268934  *    1.553161  *
    22       H         -0.8662640  *    0.286950  *   -1.546651  *
    23       H          0.8243512  *    0.363130  *   -1.088027  *
    24       H          3.4992927  *   -7.553534  *    0.734414  *
    25       H          1.9505575  *   -7.513309  *    1.558066  *
    26       C         -0.6402628  *   -4.721766  *   -0.927878  *
    27       C         -0.8106753  *   -5.639718  *   -1.989297  *
    28       C         -2.0496281  *   -6.223988  *   -2.285794  *
    29       C         -3.1293480  *   -5.888444  *   -1.461733  *
    30       H         -2.1529125  *   -6.913654  *   -3.119427  *
    31       C         -2.9980953  *   -5.013825  *   -0.370173  *
    32       C         -1.7503898  *   -4.442508  *   -0.121704  *
    33       H         -3.8571340  *   -4.790017  *    0.257612  *
    34       H         -1.6409411  *   -3.754776  *    0.722808  *
    35       O          0.2150305  *   -6.014866  *   -2.808258  *
    36       H          1.1399290  *   -5.792193  *   -2.397810  *
    37       O         -4.3818612  *   -6.398995  *   -1.661771  *
    38       H         -4.4241814  *   -7.018012  *   -2.454291  *
    39       C          4.6029204  *   -5.252090  *    1.725201  *
    40       H          5.0788671  *   -4.644273  *    2.505183  *
    41       H          5.3628990  *   -5.958604  *    1.368139  *
    42       H          4.3689187  *   -4.580739  *    0.891851  *
    43       C          3.7473404  *   -6.885370  *    3.433029  *
    44       H          4.1780015  *   -6.308566  *    4.261336  *
    45       H          2.8879075  *   -7.435419  *    3.835278  *
    46       H          4.4977717  *   -7.630476  *    3.139717  *
    47       C         -1.9481361  *   -0.576296  *    0.807169  *
    48       H         -2.2666224  *   -0.470850  *    1.851915  *
    49       H         -2.6808616  *   -0.032846  *    0.197174  *
    50       H         -2.0341992  *   -1.636670  *    0.547111  *
    51       C         -0.4717450  *    1.450024  *    0.967433  *
    52       H          0.5279680  *    1.878029  *    0.825386  *
    53       H         -1.1652132  *    2.044556  *    0.359234  *
    54       H         -0.7475500  *    1.612386  *    2.016812  *
 


          CARTESIAN COORDINATES 

    NO.       ATOM         X         Y         Z

     1         C        3.3625   -5.9818    2.2562
     2         C        2.3102   -4.9414    2.7449
     3         C        1.6428   -4.2784    1.6014
     4         C        1.4923   -4.7764    0.3501
     5         C        0.6983   -4.0452   -0.7080
     6         C        0.5176   -2.6003   -0.3108
     7         C        0.7068   -2.1802    0.9610
     8         C        0.4761   -0.8174    1.4910
     9         C       -0.5280   -0.0358    0.5921
    10         C       -0.1156   -0.2057   -0.8910
    11         C        0.1031   -1.6279   -1.3344
    12         O       -0.0197   -1.9337   -2.5144
    13         O        1.1823   -3.0188    1.9701
    14         C        2.1239   -6.0537    0.0134
    15         O        2.1564   -6.4827   -1.1432
    16         C        2.7377   -6.8464    1.1304
    17         H        1.5412   -5.4420    3.3828
    18         H        2.7869   -4.2038    3.4304
    19         H        1.2777   -4.0749   -1.6766
    20         H        0.1154   -0.8426    2.5447
    21         H        1.4472   -0.2689    1.5532
    22         H       -0.8663    0.2869   -1.5467
    23         H        0.8244    0.3631   -1.0880
    24         H        3.4993   -7.5535    0.7344
    25         H        1.9506   -7.5133    1.5581
    26         C       -0.6403   -4.7218   -0.9279
    27         C       -0.8107   -5.6397   -1.9893
    28         C       -2.0496   -6.2240   -2.2858
    29         C       -3.1293   -5.8884   -1.4617
    30         H       -2.1529   -6.9137   -3.1194
    31         C       -2.9981   -5.0138   -0.3702
    32         C       -1.7504   -4.4425   -0.1217
    33         H       -3.8571   -4.7900    0.2576
    34         H       -1.6409   -3.7548    0.7228
    35         O        0.2150   -6.0149   -2.8083
    36         H        1.1399   -5.7922   -2.3978
    37         O       -4.3819   -6.3990   -1.6618
    38         H       -4.4242   -7.0180   -2.4543
    39         C        4.6029   -5.2521    1.7252
    40         H        5.0789   -4.6443    2.5052
    41         H        5.3629   -5.9586    1.3681
    42         H        4.3689   -4.5807    0.8919
    43         C        3.7473   -6.8854    3.4330
    44         H        4.1780   -6.3086    4.2613
    45         H        2.8879   -7.4354    3.8353
    46         H        4.4978   -7.6305    3.1397
    47         C       -1.9481   -0.5763    0.8072
    48         H       -2.2666   -0.4708    1.8519
    49         H       -2.6809   -0.0328    0.1972
    50         H       -2.0342   -1.6367    0.5471
    51         C       -0.4717    1.4500    0.9674
    52         H        0.5280    1.8780    0.8254
    53         H       -1.1652    2.0446    0.3592
    54         H       -0.7476    1.6124    2.0168

 General Reference for PM6:
 "Optimization of Parameters for Semiempirical Methods V: Modification of NDDO Approximations
 and Application to 70 Elements", J. J. P. Stewart, J. Mol. Mod., 13, 1173-1213 (2007)
 URL: http://www.springerlink.com/content/ar33482301010477/fulltext.pdf

           Empirical Formula: C23 H26 O5  =    54 atoms



      MOLECULAR POINT GROUP   :   C1  


      RHF CALCULATION, NO. OF DOUBLY OCCUPIED LEVELS =   74

  SCF CRITERION =    0.1000E-04


          HEAT OF FORMATION =    -231.717795 KCALS/MOLE


          INTERNAL COORDINATE DERIVATIVES

   NUMBER  ATOM       BOND         ANGLE      DIHEDRAL

     1       C
     2       C     -0.014104
     3       C     -0.017077    -0.000029
     4       C      0.041414     0.078734     0.014669
     5       C     -0.120195    -0.056267    -0.018257
     6       C      0.037869     0.024257    -0.072889
     7       C     -0.066472     0.015208     0.010976
     8       C      0.042640     0.044166    -0.004958
     9       C      0.048521    -0.012987    -0.078258
    10       C      0.061215     0.014713     0.014289
    11       C     -0.025282    -0.009203     0.006676
    12       O      0.037689     0.071476    -0.023011
    13       O     -0.144571    -0.031605     0.159617
    14       C     -0.015863    -0.030069     0.047680
    15       O     -0.030388     0.032170     0.019452
    16       C      0.003087    -0.014794     0.093654
    17       H      0.043564    -0.075335    -0.164006
    18       H      0.001204    -0.018512     0.009549
    19       H      0.020852     0.017283    -0.054849
    20       H      0.005130    -0.051736    -0.005096
    21       H      0.042559     0.027227     0.006903
    22       H      0.063873     0.020664     0.013023
    23       H     -0.069342    -0.003558    -0.024555
    24       H     -0.016478    -0.014589    -0.013740
    25       H     -0.024432     0.001912    -0.018817
    26       C      0.028244    -0.003859     0.016136
    27       C     -0.024388     0.038993     0.001675
    28       C     -0.072066    -0.082558    -0.002316
    29       C      0.022715    -0.063390     0.043497
    30       H      0.061118    -0.026064    -0.067091
    31       C     -0.039828     0.050372     0.086923
    32       C     -0.003943    -0.046867     0.023489
    33       H      0.081724    -0.023036     0.115613
    34       H     -0.047100     0.039931    -0.055940
    35       O     -0.014701     0.016557     0.001712
    36       H      0.057531    -0.002699    -0.023995
    37       O      0.007615     0.090132    -0.032194
    38       H      0.042853    -0.019135     0.030936
    39       C      0.142141     0.092767    -0.244615
    40       H     -0.097345    -0.118091     0.188225
    41       H     -0.014710     0.043625    -0.009026
    42       H      0.009200    -0.019373    -0.050582
    43       C      0.016347     0.008441     0.014553
    44       H     -0.023851     0.007706     0.006877
    45       H     -0.029294     0.017915     0.042773
    46       H      0.015187    -0.028326    -0.026578
    47       C     -0.015504     0.011536    -0.026243
    48       H      0.007708     0.007578     0.005494
    49       H     -0.037421     0.011101    -0.025682
    50       H      0.022042     0.006350     0.009002
    51       C     -0.018282    -0.026377     0.009441
    52       H     -0.000612    -0.004830     0.011454
    53       H      0.046930    -0.011350     0.025998
    54       H     -0.039206     0.014050    -0.027701


          GRADIENT NORM =   0.66541


          TIME FOR SCF CALCULATION =    0.24

          TIME FOR DERIVATIVES     =    0.08

          MOLECULAR WEIGHT =  382.46



          ROTATIONAL CONSTANTS IN CM(-1)

          A =    0.00652050   B =    0.00554452   C =    0.00364751



           PRINCIPAL MOMENTS OF INERTIA IN UNITS OF 10**(-40)*GRAM-CM**2

          A =     4293.0397   B =     5048.7276   C =     7674.4791


          ORIENTATION OF MOLECULE IN FORCE CALCULATION

    NO.       ATOM         X         Y         Z

     1          C      -2.6842   -3.2130   -0.7170
     2          C      -1.1259   -3.2130   -0.7170
     3          C      -0.5911   -1.8322   -0.7170
     4          C      -1.2144   -0.7210   -0.2552
     5          C      -0.5218    0.6219   -0.2146
     6          C       0.6894    0.6051   -1.1152
     7          C       1.2409   -0.5514   -1.5488
     8          C       2.4726   -0.7014   -2.3560
     9          C       3.3907    0.5481   -2.2038
    10          C       2.5336    1.8273   -2.3708
    11          C       1.2975    1.8845   -1.5131
    12          O       0.8062    2.9645   -1.2076
    13          O       0.6763   -1.8010   -1.2889
    14          C      -2.5991   -0.8246    0.2090
    15          O      -3.2702    0.1714    0.4928
    16          C      -3.1925   -2.1971    0.3388
    17          H      -0.7407   -3.7592    0.1787
    18          H      -0.7404   -3.8062   -1.5777
    19          H      -1.2366    1.4065   -0.5996
    20          H       3.0298   -1.6275   -2.0861
    21          H       2.2026   -0.8543   -3.4291
    22          H       3.1638    2.7255   -2.1919
    23          H       2.2169    1.9319   -3.4360
    24          H      -4.3031   -2.1467    0.3063
    25          H      -2.9722   -2.5764    1.3658
    26          C      -0.1386    0.9776    1.2081
    27          C      -0.9692    1.8199    1.9821
    28          C      -0.6156    2.2467    3.2694
    29          C       0.5959    1.7781    3.7891
    30          H      -1.2677    2.9083    3.8336
    31          C       1.4335    0.9063    3.0734
    32          C       1.0503    0.5203    1.7893
    33          H       2.3598    0.5504    3.5176
    34          H       1.7003   -0.1535    1.2221
    35          O      -2.1691    2.2868    1.5286
    36          H      -2.5162    1.7413    0.7190
    37          O       1.0381    2.1327    5.0334
    38          H       0.4049    2.7574    5.5044
    39          C      -3.2012   -2.8222   -2.1074
    40          H      -2.8722   -3.5337   -2.8754
    41          H      -4.2980   -2.8083   -2.1393
    42          H      -2.8563   -1.8302   -2.4186
    43          C      -3.1783   -4.6161   -0.3474
    44          H      -2.8243   -5.3703   -1.0616
    45          H      -2.8390   -4.9294    0.6475
    46          H      -4.2744   -4.6692   -0.3452
    47          C       4.0562    0.5391   -0.8210
    48          H       4.6692   -0.3589   -0.6736
    49          H       4.7225    1.4013   -0.6909
    50          H       3.3248    0.5701   -0.0064
    51          C       4.4623    0.5086   -3.3000
    52          H       4.0284    0.5166   -4.3073
    53          H       5.1367    1.3717   -3.2338
    54          H       5.0860   -0.3907   -3.2231


    FIRST DERIVATIVES WILL BE USED IN THE CALCULATION OF SECOND DERIVATIVES

          ESTIMATED TIME TO COMPLETE CALCULATION =      105.28 SECONDS

    FOR POINT-GROUP C1   THERE ARE   1 UNIQUE SYMMETRY FUNCTIONS.

 STEP:   1 TIME =     0.24 SECS, INTEGRAL =      0.24 TIME LEFT: 172799.44
 STEP:   2 TIME =     0.24 SECS, INTEGRAL =      0.48 TIME LEFT: 172799.20
 STEP:   3 TIME =     0.23 SECS, INTEGRAL =      0.70 TIME LEFT: 172798.97
 STEP:   4 TIME =     0.23 SECS, INTEGRAL =      0.93 TIME LEFT: 172798.74
 STEP:   5 TIME =     0.24 SECS, INTEGRAL =      1.18 TIME LEFT: 172798.50
 STEP:   6 TIME =     0.23 SECS, INTEGRAL =      1.41 TIME LEFT: 172798.27
 STEP:   7 TIME =     0.24 SECS, INTEGRAL =      1.64 TIME LEFT: 172798.03
 STEP:   8 TIME =     0.24 SECS, INTEGRAL =      1.89 TIME LEFT: 172797.79
 STEP:   9 TIME =     0.24 SECS, INTEGRAL =      2.12 TIME LEFT: 172797.55
 STEP:  10 TIME =     0.24 SECS, INTEGRAL =      2.37 TIME LEFT: 172797.31
 STEP:  11 TIME =     0.23 SECS, INTEGRAL =      2.60 TIME LEFT: 172797.08
 STEP:  12 TIME =     0.23 SECS, INTEGRAL =      2.83 TIME LEFT: 172796.84
 STEP:  13 TIME =     0.23 SECS, INTEGRAL =      3.06 TIME LEFT: 172796.61
 STEP:  14 TIME =     0.24 SECS, INTEGRAL =      3.30 TIME LEFT: 172796.37
 STEP:  15 TIME =     0.24 SECS, INTEGRAL =      3.54 TIME LEFT: 172796.13
 STEP:  16 TIME =     0.23 SECS, INTEGRAL =      3.77 TIME LEFT: 172795.90
 STEP:  17 TIME =     0.24 SECS, INTEGRAL =      4.02 TIME LEFT: 172795.66
 STEP:  18 TIME =     0.23 SECS, INTEGRAL =      4.25 TIME LEFT: 172795.42
 STEP:  19 TIME =     0.24 SECS, INTEGRAL =      4.49 TIME LEFT: 172795.18
 STEP:  20 TIME =     0.24 SECS, INTEGRAL =      4.73 TIME LEFT: 172794.95
 STEP:  21 TIME =     0.24 SECS, INTEGRAL =      4.97 TIME LEFT: 172794.71
 STEP:  22 TIME =     0.24 SECS, INTEGRAL =      5.21 TIME LEFT: 172794.47
 STEP:  23 TIME =     0.23 SECS, INTEGRAL =      5.44 TIME LEFT: 172794.24
 STEP:  24 TIME =     0.23 SECS, INTEGRAL =      5.67 TIME LEFT: 172794.00
 STEP:  25 TIME =     0.23 SECS, INTEGRAL =      5.91 TIME LEFT: 172793.77
 STEP:  26 TIME =     0.23 SECS, INTEGRAL =      6.14 TIME LEFT: 172793.54
 STEP:  27 TIME =     0.23 SECS, INTEGRAL =      6.37 TIME LEFT: 172793.31
 STEP:  28 TIME =     0.23 SECS, INTEGRAL =      6.60 TIME LEFT: 172793.08
 STEP:  29 TIME =     0.23 SECS, INTEGRAL =      6.83 TIME LEFT: 172792.85
 STEP:  30 TIME =     0.23 SECS, INTEGRAL =      7.06 TIME LEFT: 172792.62
 STEP:  31 TIME =     0.24 SECS, INTEGRAL =      7.30 TIME LEFT: 172792.38
 STEP:  32 TIME =     0.24 SECS, INTEGRAL =      7.54 TIME LEFT: 172792.13
 STEP:  33 TIME =     0.24 SECS, INTEGRAL =      7.78 TIME LEFT: 172791.90
 STEP:  34 TIME =     0.23 SECS, INTEGRAL =      8.01 TIME LEFT: 172791.67
 STEP:  35 TIME =     0.23 SECS, INTEGRAL =      8.24 TIME LEFT: 172791.44
 STEP:  36 TIME =     0.23 SECS, INTEGRAL =      8.47 TIME LEFT: 172791.21
 STEP:  37 TIME =     0.23 SECS, INTEGRAL =      8.70 TIME LEFT: 172790.98
 STEP:  38 TIME =     0.23 SECS, INTEGRAL =      8.93 TIME LEFT: 172790.74
 STEP:  39 TIME =     0.23 SECS, INTEGRAL =      9.16 TIME LEFT: 172790.51
 STEP:  40 TIME =     0.25 SECS, INTEGRAL =      9.41 TIME LEFT: 172790.26
 STEP:  41 TIME =     0.23 SECS, INTEGRAL =      9.64 TIME LEFT: 172790.03
 STEP:  42 TIME =     0.24 SECS, INTEGRAL =      9.88 TIME LEFT: 172789.79
 STEP:  43 TIME =     0.23 SECS, INTEGRAL =     10.11 TIME LEFT: 172789.56
 STEP:  44 TIME =     0.23 SECS, INTEGRAL =     10.34 TIME LEFT: 172789.33
 STEP:  45 TIME =     0.23 SECS, INTEGRAL =     10.57 TIME LEFT: 172789.10
 STEP:  46 TIME =     0.23 SECS, INTEGRAL =     10.80 TIME LEFT: 172788.87
 STEP:  47 TIME =     0.23 SECS, INTEGRAL =     11.03 TIME LEFT: 172788.64
 STEP:  48 TIME =     0.23 SECS, INTEGRAL =     11.26 TIME LEFT: 172788.41
 STEP:  49 TIME =     0.22 SECS, INTEGRAL =     11.49 TIME LEFT: 172788.19
 STEP:  50 TIME =     0.22 SECS, INTEGRAL =     11.71 TIME LEFT: 172787.96
 STEP:  51 TIME =     0.23 SECS, INTEGRAL =     11.94 TIME LEFT: 172787.73
 STEP:  52 TIME =     0.22 SECS, INTEGRAL =     12.16 TIME LEFT: 172787.51
 STEP:  53 TIME =     0.22 SECS, INTEGRAL =     12.38 TIME LEFT: 172787.29
 STEP:  54 TIME =     0.22 SECS, INTEGRAL =     12.60 TIME LEFT: 172787.07
 STEP:  55 TIME =     0.22 SECS, INTEGRAL =     12.82 TIME LEFT: 172786.85
 STEP:  56 TIME =     0.22 SECS, INTEGRAL =     13.04 TIME LEFT: 172786.63
 STEP:  57 TIME =     0.22 SECS, INTEGRAL =     13.26 TIME LEFT: 172786.41
 STEP:  58 TIME =     0.22 SECS, INTEGRAL =     13.48 TIME LEFT: 172786.19
 STEP:  59 TIME =     0.22 SECS, INTEGRAL =     13.70 TIME LEFT: 172785.97
 STEP:  60 TIME =     0.22 SECS, INTEGRAL =     13.92 TIME LEFT: 172785.75
 STEP:  61 TIME =     0.22 SECS, INTEGRAL =     14.15 TIME LEFT: 172785.53
 STEP:  62 TIME =     0.22 SECS, INTEGRAL =     14.37 TIME LEFT: 172785.30
 STEP:  63 TIME =     0.22 SECS, INTEGRAL =     14.59 TIME LEFT: 172785.09
 STEP:  64 TIME =     0.22 SECS, INTEGRAL =     14.81 TIME LEFT: 172784.87
 STEP:  65 TIME =     0.22 SECS, INTEGRAL =     15.03 TIME LEFT: 172784.65
 STEP:  66 TIME =     0.22 SECS, INTEGRAL =     15.25 TIME LEFT: 172784.43
 STEP:  67 TIME =     0.22 SECS, INTEGRAL =     15.47 TIME LEFT: 172784.20
 STEP:  68 TIME =     0.23 SECS, INTEGRAL =     15.70 TIME LEFT: 172783.98
 STEP:  69 TIME =     0.22 SECS, INTEGRAL =     15.91 TIME LEFT: 172783.76
 STEP:  70 TIME =     0.22 SECS, INTEGRAL =     16.13 TIME LEFT: 172783.54
 STEP:  71 TIME =     0.22 SECS, INTEGRAL =     16.36 TIME LEFT: 172783.32
 STEP:  72 TIME =     0.22 SECS, INTEGRAL =     16.58 TIME LEFT: 172783.09
 STEP:  73 TIME =     0.22 SECS, INTEGRAL =     16.80 TIME LEFT: 172782.87
 STEP:  74 TIME =     0.22 SECS, INTEGRAL =     17.02 TIME LEFT: 172782.65
 STEP:  75 TIME =     0.22 SECS, INTEGRAL =     17.24 TIME LEFT: 172782.43
 STEP:  76 TIME =     0.26 SECS, INTEGRAL =     17.50 TIME LEFT: 172782.17
 STEP:  77 TIME =     0.24 SECS, INTEGRAL =     17.74 TIME LEFT: 172781.94
 STEP:  78 TIME =     0.23 SECS, INTEGRAL =     17.97 TIME LEFT: 172781.70
 STEP:  79 TIME =     0.24 SECS, INTEGRAL =     18.21 TIME LEFT: 172781.46
 STEP:  80 TIME =     0.24 SECS, INTEGRAL =     18.45 TIME LEFT: 172781.23
 STEP:  81 TIME =     0.25 SECS, INTEGRAL =     18.70 TIME LEFT: 172780.97
 STEP:  82 TIME =     0.24 SECS, INTEGRAL =     18.94 TIME LEFT: 172780.73
 STEP:  83 TIME =     0.23 SECS, INTEGRAL =     19.17 TIME LEFT: 172780.50
 STEP:  84 TIME =     0.24 SECS, INTEGRAL =     19.41 TIME LEFT: 172780.26
 STEP:  85 TIME =     0.24 SECS, INTEGRAL =     19.65 TIME LEFT: 172780.02
 STEP:  86 TIME =     0.23 SECS, INTEGRAL =     19.88 TIME LEFT: 172779.79
 STEP:  87 TIME =     0.23 SECS, INTEGRAL =     20.11 TIME LEFT: 172779.56
 STEP:  88 TIME =     0.22 SECS, INTEGRAL =     20.34 TIME LEFT: 172779.34
 STEP:  89 TIME =     0.22 SECS, INTEGRAL =     20.56 TIME LEFT: 172779.12
 STEP:  90 TIME =     0.22 SECS, INTEGRAL =     20.77 TIME LEFT: 172778.90
 STEP:  91 TIME =     0.22 SECS, INTEGRAL =     21.00 TIME LEFT: 172778.68
 STEP:  92 TIME =     0.23 SECS, INTEGRAL =     21.23 TIME LEFT: 172778.45
 STEP:  93 TIME =     0.25 SECS, INTEGRAL =     21.48 TIME LEFT: 172778.19
 STEP:  94 TIME =     0.24 SECS, INTEGRAL =     21.72 TIME LEFT: 172777.95
 STEP:  95 TIME =     0.23 SECS, INTEGRAL =     21.96 TIME LEFT: 172777.72
 STEP:  96 TIME =     0.24 SECS, INTEGRAL =     22.20 TIME LEFT: 172777.48
 STEP:  97 TIME =     0.22 SECS, INTEGRAL =     22.42 TIME LEFT: 172777.25
 STEP:  98 TIME =     0.22 SECS, INTEGRAL =     22.64 TIME LEFT: 172777.03
 STEP:  99 TIME =     0.22 SECS, INTEGRAL =     22.86 TIME LEFT: 172776.82
 STEP: 100 TIME =     0.22 SECS, INTEGRAL =     23.08 TIME LEFT: 172776.60
 STEP: 101 TIME =     0.23 SECS, INTEGRAL =     23.30 TIME LEFT: 172776.37
 STEP: 102 TIME =     0.22 SECS, INTEGRAL =     23.53 TIME LEFT: 172776.15
 STEP: 103 TIME =     0.23 SECS, INTEGRAL =     23.76 TIME LEFT: 172775.91
 STEP: 104 TIME =     0.23 SECS, INTEGRAL =     23.99 TIME LEFT: 172775.68
 STEP: 105 TIME =     0.23 SECS, INTEGRAL =     24.22 TIME LEFT: 172775.45
 STEP: 106 TIME =     0.23 SECS, INTEGRAL =     24.45 TIME LEFT: 172775.22
 STEP: 107 TIME =     0.23 SECS, INTEGRAL =     24.68 TIME LEFT: 172775.00
 STEP: 108 TIME =     0.23 SECS, INTEGRAL =     24.90 TIME LEFT: 172774.77
 STEP: 109 TIME =     0.23 SECS, INTEGRAL =     25.13 TIME LEFT: 172774.54
 STEP: 110 TIME =     0.22 SECS, INTEGRAL =     25.36 TIME LEFT: 172774.32
 STEP: 111 TIME =     0.24 SECS, INTEGRAL =     25.59 TIME LEFT: 172774.08
 STEP: 112 TIME =     0.23 SECS, INTEGRAL =     25.82 TIME LEFT: 172773.86
 STEP: 113 TIME =     0.23 SECS, INTEGRAL =     26.04 TIME LEFT: 172773.63
 STEP: 114 TIME =     0.22 SECS, INTEGRAL =     26.26 TIME LEFT: 172773.41
 STEP: 115 TIME =     0.23 SECS, INTEGRAL =     26.49 TIME LEFT: 172773.18
 STEP: 116 TIME =     0.23 SECS, INTEGRAL =     26.72 TIME LEFT: 172772.96
 STEP: 117 TIME =     0.23 SECS, INTEGRAL =     26.94 TIME LEFT: 172772.73
 STEP: 118 TIME =     0.22 SECS, INTEGRAL =     27.17 TIME LEFT: 172772.51
 STEP: 119 TIME =     0.22 SECS, INTEGRAL =     27.38 TIME LEFT: 172772.29
 STEP: 120 TIME =     0.22 SECS, INTEGRAL =     27.60 TIME LEFT: 172772.08
 STEP: 121 TIME =     0.22 SECS, INTEGRAL =     27.82 TIME LEFT: 172771.86
 STEP: 122 TIME =     0.22 SECS, INTEGRAL =     28.04 TIME LEFT: 172771.64
 STEP: 123 TIME =     0.22 SECS, INTEGRAL =     28.26 TIME LEFT: 172771.41
 STEP: 124 TIME =     0.22 SECS, INTEGRAL =     28.48 TIME LEFT: 172771.20
 STEP: 125 TIME =     0.22 SECS, INTEGRAL =     28.70 TIME LEFT: 172770.98
 STEP: 126 TIME =     0.22 SECS, INTEGRAL =     28.91 TIME LEFT: 172770.76
 STEP: 127 TIME =     0.23 SECS, INTEGRAL =     29.14 TIME LEFT: 172770.54
 STEP: 128 TIME =     0.23 SECS, INTEGRAL =     29.37 TIME LEFT: 172770.31
 STEP: 129 TIME =     0.23 SECS, INTEGRAL =     29.59 TIME LEFT: 172770.08
 STEP: 130 TIME =     0.22 SECS, INTEGRAL =     29.81 TIME LEFT: 172769.87
 STEP: 131 TIME =     0.22 SECS, INTEGRAL =     30.03 TIME LEFT: 172769.65
 STEP: 132 TIME =     0.22 SECS, INTEGRAL =     30.24 TIME LEFT: 172769.43
 STEP: 133 TIME =     0.22 SECS, INTEGRAL =     30.46 TIME LEFT: 172769.21
 STEP: 134 TIME =     0.22 SECS, INTEGRAL =     30.68 TIME LEFT: 172769.00
 STEP: 135 TIME =     0.22 SECS, INTEGRAL =     30.89 TIME LEFT: 172768.78
 STEP: 136 TIME =     0.22 SECS, INTEGRAL =     31.11 TIME LEFT: 172768.56
 STEP: 137 TIME =     0.22 SECS, INTEGRAL =     31.33 TIME LEFT: 172768.34
 STEP: 138 TIME =     0.22 SECS, INTEGRAL =     31.56 TIME LEFT: 172768.12
 STEP: 139 TIME =     0.23 SECS, INTEGRAL =     31.78 TIME LEFT: 172767.89
 STEP: 140 TIME =     0.23 SECS, INTEGRAL =     32.01 TIME LEFT: 172767.66
 STEP: 141 TIME =     0.23 SECS, INTEGRAL =     32.24 TIME LEFT: 172767.44
 STEP: 142 TIME =     0.22 SECS, INTEGRAL =     32.46 TIME LEFT: 172767.22
 STEP: 143 TIME =     0.22 SECS, INTEGRAL =     32.68 TIME LEFT: 172767.00
 STEP: 144 TIME =     0.22 SECS, INTEGRAL =     32.90 TIME LEFT: 172766.78
 STEP: 145 TIME =     0.22 SECS, INTEGRAL =     33.11 TIME LEFT: 172766.56
 STEP: 146 TIME =     0.22 SECS, INTEGRAL =     33.33 TIME LEFT: 172766.35
 STEP: 147 TIME =     0.22 SECS, INTEGRAL =     33.55 TIME LEFT: 172766.12
 STEP: 148 TIME =     0.22 SECS, INTEGRAL =     33.77 TIME LEFT: 172765.91
 STEP: 149 TIME =     0.22 SECS, INTEGRAL =     33.99 TIME LEFT: 172765.68
 STEP: 150 TIME =     0.22 SECS, INTEGRAL =     34.21 TIME LEFT: 172765.47
 STEP: 151 TIME =     0.23 SECS, INTEGRAL =     34.44 TIME LEFT: 172765.24
 STEP: 152 TIME =     0.23 SECS, INTEGRAL =     34.66 TIME LEFT: 172765.01
 STEP: 153 TIME =     0.23 SECS, INTEGRAL =     34.89 TIME LEFT: 172764.78
 STEP: 154 TIME =     0.22 SECS, INTEGRAL =     35.11 TIME LEFT: 172764.56
 STEP: 155 TIME =     0.22 SECS, INTEGRAL =     35.33 TIME LEFT: 172764.34
 STEP: 156 TIME =     0.22 SECS, INTEGRAL =     35.55 TIME LEFT: 172764.13
 STEP: 157 TIME =     0.22 SECS, INTEGRAL =     35.77 TIME LEFT: 172763.91
 STEP: 158 TIME =     0.22 SECS, INTEGRAL =     35.98 TIME LEFT: 172763.69
 STEP: 159 TIME =     0.22 SECS, INTEGRAL =     36.20 TIME LEFT: 172763.47
 STEP: 160 TIME =     0.22 SECS, INTEGRAL =     36.42 TIME LEFT: 172763.25
 STEP: 161 TIME =     0.22 SECS, INTEGRAL =     36.64 TIME LEFT: 172763.04
 STEP: 162 TIME =     0.22 SECS, INTEGRAL =     36.86 TIME LEFT: 172762.82

(To convert to Hartree/Bohr^2, multiply by (10^(-21) x N x a0^2)/(4.184 x 627.51) = 0.0642)


           FORCE MATRIX IN MILLIDYNES/ANGSTROM


                  C  1       C  2       C  3       C  4       C  5       C  6
 ------------------------------------------------------------------------------
     C    1  13.179703
     C    2   2.682068  11.904846
     C    3   0.827083   3.827194  15.818872
     C    4   0.123633   0.848967   7.555131  15.963264
     C    5   0.021469   0.110457   0.941288   3.505174  12.898805
     C    6   0.018670   0.030315   0.391007   0.819105   3.605747  16.083138
     C    7   0.035966   0.138749   1.651811   0.402290   0.927652   7.737009
     C    8   0.010224   0.032004   0.144526   0.031444   0.112874   0.843711
     C    9   0.004028   0.011134   0.039021   0.019214   0.020187   0.107676
     C   10   0.005049   0.008961   0.044913   0.041454   0.045013   0.749643
     C   11   0.021030   0.039885   0.352727   0.178468   0.692777   3.536565
     O   12   0.009477   0.017507   0.136699   0.073285   0.065377   1.720615
     O   13   0.076212   0.992525   3.662722   1.608724   0.263690   1.536688
     C   14   0.823641   0.186097   1.871525   3.650077   0.713919   0.173860
     O   15   0.122335   0.097210   0.452774   1.761983   0.083164   0.077630
     C   16   2.825616   0.727090   0.077086   0.758304   0.048911   0.039207
     H   17   0.592249   3.203500   0.733867   0.057204   0.019320   0.011447
     H   18   0.593498   3.265855   0.716334   0.062712   0.015348   0.011797
     H   19   0.004692   0.015077   0.044946   0.643387   3.122005   0.639789
     H   20   0.002859   0.007221   0.024935   0.013119   0.016667   0.063942
     H   21   0.002021   0.004830   0.023399   0.012219   0.018615   0.051341
     H   22   0.000943   0.001806   0.008532   0.006174   0.006690   0.050481
     H   23   0.001096   0.002150   0.010351   0.007056   0.004438   0.045224
     H   24   0.605616   0.046639   0.027349   0.051791   0.007487   0.006106
     H   25   0.610541   0.020054   0.042071   0.040007   0.006853   0.007958
     C   26   0.009783   0.029325   0.104409   0.770149   3.440651   0.739465
     C   27   0.009084   0.009137   0.018472   0.066194   0.746137   0.063613
     C   28   0.003102   0.005059   0.014714   0.021608   0.066766   0.027897
     C   29   0.006977   0.015242   0.039218   0.057047   0.098409   0.049246
     H   30   0.001029   0.001858   0.005365   0.006790   0.011528   0.006750
     C   31   0.005725   0.015111   0.040423   0.058891   0.137265   0.048373
     C   32   0.006727   0.015603   0.043108   0.056133   0.793826   0.047208
     H   33   0.000850   0.002070   0.004635   0.005759   0.010996   0.006207
     H   34   0.000733   0.001670   0.009913   0.009681   0.035178   0.032361
     O   35   0.010983   0.009353   0.032549   0.063898   0.116937   0.036553
     H   36   0.021803   0.019022   0.071879   0.094337   0.117819   0.027987
     O   37   0.005515   0.011893   0.029533   0.043736   0.079582   0.036032
     H   38   0.000966   0.002307   0.006227   0.008832   0.015944   0.007754
     C   39   3.191504   0.733500   0.056567   0.058361   0.011767   0.011887
     H   40   0.620683   0.013034   0.014243   0.006949   0.001930   0.002430
     H   41   0.608758   0.049201   0.009635   0.006311   0.001367   0.001732
     H   42   0.610656   0.009064   0.037711   0.009030   0.003344   0.003405


                  C  1       C  2       C  3       C  4       C  5       C  6
 ------------------------------------------------------------------------------
     C   43   3.242841   0.708665   0.058375   0.033611   0.009052   0.011641
     H   44   0.621151   0.013695   0.008090   0.005118   0.001515   0.001900
     H   45   0.610846   0.014656   0.007293   0.005618   0.001524   0.001973
     H   46   0.621092   0.043014   0.012348   0.005289   0.001396   0.001524
     C   47   0.002445   0.004725   0.022227   0.013631   0.010240   0.065073
     H   48   0.000580   0.001133   0.004723   0.003188   0.002108   0.008544
     H   49   0.000611   0.000690   0.003096   0.002240   0.001340   0.007497
     H   50   0.000704   0.001689   0.007368   0.004895   0.004198   0.012933
     C   51   0.002645   0.005779   0.022376   0.011693   0.007289   0.029342
     H   52   0.000480   0.000914   0.003456   0.001962   0.001192   0.004899
     H   53   0.000379   0.000691   0.002307   0.001444   0.001183   0.005365
     H   54   0.000652   0.000944   0.003226   0.001838   0.001155   0.004799


                  C  7       C  8       C  9       C 10       C 11       O 12
 ------------------------------------------------------------------------------
     C    7  15.918470
     C    8   3.855900  11.939314
     C    9   0.820035   2.711094  13.228880
     C   10   0.079618   0.730385   2.877329  11.806840
     C   11   1.798732   0.195743   0.804428   3.271258  16.173712
     O   12   0.406477   0.095673   0.117489   1.323755  10.240550  12.263663
     O   13   3.617952   0.973040   0.071946   0.078409   0.608585   0.240775
     C   14   0.351501   0.036446   0.020321   0.034412   0.174122   0.074214
     O   15   0.146850   0.016451   0.010021   0.015859   0.075953   0.032564
     C   16   0.041795   0.008482   0.004889   0.008735   0.034902   0.015359
     H   17   0.020670   0.004614   0.002039   0.003239   0.012983   0.005910
     H   18   0.022912   0.007001   0.002484   0.003166   0.013446   0.006152
     H   19   0.045532   0.015787   0.005684   0.010839   0.055734   0.019787
     H   20   0.729880   3.261752   0.588454   0.049878   0.063519   0.030095
     H   21   0.723839   3.208857   0.590982   0.021687   0.061040   0.029727
     H   22   0.025710   0.044451   0.609055   3.291240   0.708631   0.065368
     H   23   0.036018   0.018289   0.609344   3.211627   0.732902   0.085034
     H   24   0.009125   0.001386   0.000767   0.001744   0.006304   0.002850
     H   25   0.012766   0.002251   0.001403   0.002062   0.008611   0.003892
     C   26   0.086266   0.022375   0.007406   0.010410   0.034676   0.042519
     C   27   0.047376   0.015548   0.006602   0.012193   0.032678   0.023567
     C   28   0.018094   0.007595   0.003461   0.005274   0.015452   0.009128
     C   29   0.040096   0.015328   0.006309   0.013276   0.040912   0.024470
     H   30   0.005770   0.002246   0.000849   0.001786   0.004751   0.003102
     C   31   0.044335   0.015864   0.006711   0.013137   0.035082   0.022906
     C   32   0.047104   0.015799   0.007299   0.011942   0.040475   0.020839
     H   33   0.005904   0.002044   0.001667   0.001403   0.004996   0.003708
     H   34   0.026675   0.005200   0.005033   0.003971   0.014086   0.006821
     O   35   0.028729   0.008609   0.003695   0.007262   0.022995   0.015682
     H   36   0.030206   0.004497   0.002489   0.004075   0.018259   0.009966
     O   37   0.027022   0.011378   0.004969   0.009893   0.030112   0.017760
     H   38   0.005499   0.002368   0.000937   0.002429   0.006713   0.003874
     C   39   0.017911   0.003968   0.002074   0.003314   0.013761   0.006237
[...]
 T-DIPOLE    1.1063        C 39 --  H 41          +15.0% ( 40.0%)    88.4%
 TRAVEL      0.1312        C 43 --  H 46          +14.3% ( 39.0%)    99.0%
 RED. MASS   0.3217        C 39 --  H 42          +10.0% ( 32.7%)    81.8%
 EFF. MASS   1.4600

 VIBRATION  143  143A       ATOM PAIR        ENERGY CONTRIBUTION    RADIAL
 FREQ.      2683.80        C 51 --  H 53          +29.5% ( 56.0%)    98.6%
 T-DIPOLE    1.0370        C 47 --  H 49          +24.0% ( 50.5%)    98.3%
 TRAVEL      0.1311        C 51 --  H 54          +21.7% ( 48.0%)    96.3%
 RED. MASS   0.2465        C 47 --  H 50          +21.3% ( 47.6%)    97.1%
 EFF. MASS   1.4624

 VIBRATION  144  144A       ATOM PAIR        ENERGY CONTRIBUTION    RADIAL
 FREQ.      2684.38        C 51 --  H 52          +39.7% ( 65.0%)    97.8%
 T-DIPOLE    0.9081        C 51 --  H 54          +38.3% ( 63.8%)    97.7%
 TRAVEL      0.1308        C 47 --  H 50          +13.8% ( 38.3%)    99.5%
 RED. MASS   0.3380        C 47 --  H 48           +4.0% ( 20.7%)    88.6%
 EFF. MASS   1.4681

 VIBRATION  145  145A       ATOM PAIR        ENERGY CONTRIBUTION    RADIAL
 FREQ.      2686.76        C 39 --  H 42          +54.3% ( 76.0%)    98.6%
 T-DIPOLE    0.8673        C 39 --  H 41          +38.5% ( 64.0%)    96.4%
 TRAVEL      0.1308        C 43 --  H 45           +2.4% ( 16.1%)    98.5%
 RED. MASS   0.4618        C 39 --  H 40           +1.9% ( 14.2%)    25.2%
 EFF. MASS   1.4659

 VIBRATION  146  146A       ATOM PAIR        ENERGY CONTRIBUTION    RADIAL
 FREQ.      2718.21        C  2 --  H 18          +25.4% ( 49.5%)    97.7%
 T-DIPOLE    0.4944        C  8 --  H 20          +24.7% ( 48.9%)    97.1%
 TRAVEL      0.1407        C  8 --  H 21          +21.9% ( 46.0%)    96.3%
 RED. MASS   0.2038        C  2 --  H 17          +17.7% ( 41.3%)    95.4%
 EFF. MASS   1.2538

 VIBRATION  147  147A       ATOM PAIR        ENERGY CONTRIBUTION    RADIAL
 FREQ.      2719.27        C  8 --  H 20          +22.9% ( 47.0%)    97.1%
 T-DIPOLE    1.9417        C  2 --  H 18          +22.3% ( 46.4%)    97.7%
 TRAVEL      0.1406        C  8 --  H 21          +20.3% ( 44.3%)    96.3%
 RED. MASS   0.1743        C  2 --  H 17          +15.5% ( 38.7%)    95.5%
 EFF. MASS   1.2535

 VIBRATION  148  148A       ATOM PAIR        ENERGY CONTRIBUTION    RADIAL
 FREQ.      2726.65        C 16 --  H 24          +48.1% ( 68.1%)    98.0%
 T-DIPOLE    1.2219        C 16 --  H 25          +30.3% ( 54.0%)    94.7%
 TRAVEL      0.1398        C  2 --  H 18           +9.4% ( 30.0%)    97.5%
 RED. MASS   0.3299        C  2 --  H 17           +6.9% ( 25.8%)    95.0%
 EFF. MASS   1.2650

 VIBRATION  149  149A       ATOM PAIR        ENERGY CONTRIBUTION    RADIAL
 FREQ.      2727.34        C 32 --  H 34          +89.9% ( 95.9%)   100.0%
 T-DIPOLE    0.9002        C 31 --  H 33           +5.8% ( 24.3%)    99.9%
 TRAVEL      0.1334        C 31 --  C 32           +1.0% ( 10.1%)     9.5%
 RED. MASS   0.7889        C 26 --  C 32           +1.0% ( 10.1%)    19.5%
 EFF. MASS   1.3893

 VIBRATION  150  150A       ATOM PAIR        ENERGY CONTRIBUTION    RADIAL
 FREQ.      2729.97        C 10 --  H 22          +52.4% ( 71.0%)    97.9%
 T-DIPOLE    0.9018        C 10 --  H 23          +34.7% ( 57.8%)    95.0%
 TRAVEL      0.1398        C  8 --  H 20           +4.2% ( 20.2%)    96.9%
 RED. MASS   0.3898        C  8 --  H 21           +3.8% ( 19.2%)    95.4%
 EFF. MASS   1.2635

 VIBRATION  151  151A       ATOM PAIR        ENERGY CONTRIBUTION    RADIAL
 FREQ.      2747.21        C 28 --  H 30          +62.1% ( 79.6%)   100.0%
 T-DIPOLE    1.8279        C 31 --  H 33          +35.1% ( 59.8%)   100.0%
 TRAVEL      0.1336        C 32 --  H 34           +0.7% (  8.4%)    98.9%
 RED. MASS   0.4936        C 27 --  C 28           +0.6% (  8.1%)    24.7%
 EFF. MASS   1.3753

 VIBRATION  152  152A       ATOM PAIR        ENERGY CONTRIBUTION    RADIAL
 FREQ.      2755.12        C 31 --  H 33          +57.0% ( 76.2%)   100.0%
 T-DIPOLE    0.8934        C 28 --  H 30          +35.0% ( 59.7%)   100.0%
 TRAVEL      0.1310        C 32 --  H 34           +5.4% ( 23.4%)    99.8%
 RED. MASS   0.4382        C 31 --  C 32           +0.8% (  8.9%)    54.6%
 EFF. MASS   1.4258

 VIBRATION  153  153A       ATOM PAIR        ENERGY CONTRIBUTION    RADIAL
 FREQ.      2785.38        C 47 --  H 49          +26.3% ( 49.3%)    96.1%
 T-DIPOLE    0.5852        C 47 --  H 48          +24.0% ( 47.1%)    95.6%
 TRAVEL      0.1458        C 47 --  H 50          +23.7% ( 46.8%)    95.4%
 RED. MASS   0.2012        C 51 --  H 52           +8.5% ( 28.1%)    95.7%
 EFF. MASS   1.1395

 VIBRATION  154  154A       ATOM PAIR        ENERGY CONTRIBUTION    RADIAL
 FREQ.      2787.18        C 43 --  H 46          +23.1% ( 46.2%)    95.9%
 T-DIPOLE    0.6592        C 43 --  H 45          +22.2% ( 45.3%)    95.6%
 TRAVEL      0.1458        C 43 --  H 44          +21.6% ( 44.6%)    95.5%
 RED. MASS   0.1823        C 39 --  H 41          +11.3% ( 32.3%)    96.0%
 EFF. MASS   1.1386        C 39 --  H 42          +11.2% ( 32.1%)    95.8%
                           C 39 --  H 40          +10.3% ( 30.8%)    95.5%

 VIBRATION  155  155A       ATOM PAIR        ENERGY CONTRIBUTION    RADIAL
 FREQ.      2790.52        C 51 --  H 53          +25.3% ( 48.3%)    95.6%
 T-DIPOLE    0.6224        C 51 --  H 54          +24.8% ( 47.9%)    95.5%
 TRAVEL      0.1452        C 51 --  H 52          +23.7% ( 46.8%)    95.3%
 RED. MASS   0.2000        C 47 --  H 49           +9.1% ( 28.9%)    95.8%
 EFF. MASS   1.1468

 VIBRATION  156  156A       ATOM PAIR        ENERGY CONTRIBUTION    RADIAL
 FREQ.      2791.72        C 39 --  H 41          +23.2% ( 46.2%)    95.6%
 T-DIPOLE    0.5313        C 39 --  H 40          +21.8% ( 44.8%)    95.3%
 TRAVEL      0.1451        C 39 --  H 42          +21.7% ( 44.7%)    95.4%
 RED. MASS   0.1804        C 43 --  H 46          +11.4% ( 32.4%)    95.6%
 EFF. MASS   1.1478        C 43 --  H 44          +10.6% ( 31.2%)    95.0%
                           C 43 --  H 45          +10.4% ( 30.9%)    95.3%

 SYMMETRY NUMBER FOR POINT-GROUP C1  =  1


          SYSTEM IS A GROUND STATE


                                                                                                                                                                                                                                                 
 SJ000002349-1_T001S001I001C07: Free energy calculation                                                                                                                                                                                          


          MOLECULE IS NOT LINEAR

          THERE ARE  156 GENUINE VIBRATIONS IN THIS SYSTEM
          THIS THERMODYNAMICS CALCULATION IS LIMITED TO
          MOLECULES WHICH HAVE NO INTERNAL ROTATIONS




                    CALCULATED THERMODYNAMIC PROPERTIES
                                          *
   TEMP. (K)   PARTITION FUNCTION   H.O.F.    ENTHALPY  HEAT CAPACITY ENTROPY
                                   KCAL/MOL   CAL/MOLE    CAL/K/MOL  CAL/K/MOL


 298.00  VIB.     0.4071D+10                 14832.9427    99.8799    93.7462
         ROT.     0.1455D+08                   888.2813     2.9808    35.7559
         INT.     0.5923D+17                 15721.2240   102.8607   129.5021
         TRA.     0.7231D+28                  1480.4688     4.9680    43.7144
         TOT.                     -231.718   17201.6929   107.8287   173.2165

 200.00  VIB.     0.1092D+07                  6650.8636    67.2454    60.8839
         ROT.     0.7999D+07                   596.1620     2.9808    34.5672
         INT.     0.8737D+13                  7247.0255    70.2262    95.4511
         TRA.     0.3976D+28                   993.6033     4.9680    41.7332
         TOT.                     -240.679    8240.6288    75.1942   137.1844

 210.00  VIB.     0.2523D+07                  7339.7006    70.5240    64.2441
         ROT.     0.8607D+07                   625.9700     2.9808    34.7127
         INT.     0.2171D+14                  7965.6707    73.5048    98.9568
         TRA.     0.4278D+28                  1043.2834     4.9680    41.9756
         TOT.                     -239.911    9008.9541    78.4728   140.9324

 220.00  VIB.     0.5831D+07                  8061.3893    73.8162    67.6008
         ROT.     0.9229D+07                   655.7781     2.9808    34.8513
         INT.     0.5381D+14                  8717.1674    76.7970   102.4521
         TRA.     0.4587D+28                  1092.9636     4.9680    42.2067
         TOT.                     -239.109    9810.1310    81.7650   144.6589

 230.00  VIB.     0.1349D+08                  8816.0762    77.1238    70.9550
         ROT.     0.9865D+07                   685.5862     2.9808    34.9838
         INT.     0.1330D+15                  9501.6624    80.1046   105.9388
         TRA.     0.4903D+28                  1142.6437     4.9680    42.4276
         TOT.                     -238.275   10644.3062    85.0726   148.3664

 240.00  VIB.     0.3120D+08                  9603.9173    80.4469    74.3075
         ROT.     0.1052D+08                   715.3943     2.9808    35.1107
         INT.     0.3281D+15                 10319.3117    83.4277   109.4182
         TRA.     0.5226D+28                  1192.3239     4.9680    42.6390
         TOT.                     -237.408   11511.6356    88.3957   152.0572

 250.00  VIB.     0.7222D+08                 10425.0607    83.7839    77.6591
         ROT.     0.1118D+08                   745.2024     2.9808    35.2324
         INT.     0.8074D+15                 11170.2631    86.7647   112.8915
         TRA.     0.5556D+28                  1242.0041     4.9680    42.8418
         TOT.                     -236.507   12412.2672    91.7327   155.7333

 260.00  VIB.     0.1672D+09                 11279.6320    87.1319    81.0104
         ROT.     0.1186D+08                   775.0105     2.9808    35.3493
         INT.     0.1982D+16                 12054.6425    90.1127   116.3596
         TRA.     0.5893D+28                  1291.6842     4.9680    43.0367
         TOT.                     -235.573   13346.3268    95.0807   159.3963

 270.00  VIB.     0.3872D+09                 12167.7232    90.4872    84.3617
         ROT.     0.1255D+08                   804.8186     2.9808    35.4618
         INT.     0.4859D+16                 12972.5419    93.4680   119.8234
         TRA.     0.6236D+28                  1341.3644     4.9680    43.2242
         TOT.                     -234.606   14313.9063    98.4360   163.0476

 280.00  VIB.     0.8970D+09                 13089.3842    93.8451    87.7132
         ROT.     0.1325D+08                   834.6267     2.9808    35.5702
         INT.     0.1189D+17                 13924.0109    96.8259   123.2833
         TRA.     0.6586D+28                  1391.0445     4.9680    43.4048
         TOT.                     -233.604   15315.0555   101.7939   166.6882

 290.00  VIB.     0.2078D+10                 14044.6167    97.2006    91.0648
         ROT.     0.1397D+08                   864.4348     2.9808    35.6748
         INT.     0.2903D+17                 14909.0515   100.1814   126.7396
         TRA.     0.6942D+28                  1440.7247     4.9680    43.5792
         TOT.                     -232.570   16349.7762   105.1494   170.3188

 300.00  VIB.     0.4816D+10                 15033.3713   100.5486    94.4166
         ROT.     0.1470D+08                   894.2429     2.9808    35.7758
         INT.     0.7078D+17                 15927.6142   103.5294   130.1924
         TRA.     0.7304D+28                  1490.4049     4.9680    43.7476
         TOT.                     -231.501   17418.0191   108.4974   173.9400

 310.00  VIB.     0.1116D+11                 16055.5460   103.8838    97.7679
         ROT.     0.1544D+08                   924.0510     2.9808    35.8736
         INT.     0.1723D+18                 16979.5971   106.8646   133.6415
         TRA.     0.7672D+28                  1540.0850     4.9680    43.9105
         TOT.                     -230.400   18519.6821   111.8326   177.5520

 320.00  VIB.     0.2588D+11                 17110.9871   107.2010   101.1186
         ROT.     0.1619D+08                   953.8591     2.9808    35.9682
         INT.     0.4190D+18                 18064.8462   110.1818   137.0868
         TRA.     0.8046D+28                  1589.7652     4.9680    44.0682
         TOT.                     -229.265   19654.6114   115.1499   181.1550

 330.00  VIB.     0.6000D+11                 18199.4905   110.4955   104.4678
         ROT.     0.1695D+08                   983.6672     2.9808    36.0599
         INT.     0.1017D+19                 19183.1577   113.4763   140.5277
         TRA.     0.8426D+28                  1639.4454     4.9680    44.2211
         TOT.                     -228.097   20822.6031   118.4443   184.7488

 340.00  VIB.     0.1391D+12                 19320.8049   113.7625   107.8150
         ROT.     0.1773D+08                  1013.4753     2.9808    36.1489
         INT.     0.2467D+19                 20334.2802   116.7433   143.9639
         TRA.     0.8812D+28                  1689.1255     4.9680    44.3694
         TOT.                     -226.896   22023.4057   121.7113   188.3334

 350.00  VIB.     0.3226D+12                 20474.6352   116.9980   111.1595
         ROT.     0.1852D+08                  1043.2834     2.9808    36.2353
         INT.     0.5975D+19                 21517.9187   119.9788   147.3948
         TRA.     0.9204D+28                  1738.8057     4.9680    44.5134
         TOT.                     -225.663   23256.7243   124.9468   191.9082

 360.00  VIB.     0.7481D+12                 21660.6470   120.1982   114.5003
         ROT.     0.1932D+08                  1073.0915     2.9808    36.3193
         INT.     0.1445D+20                 22733.7385   123.1790   150.8196
         TRA.     0.9601D+28                  1788.4859     4.9680    44.6534
         TOT.                     -224.397   24522.2243   128.1470   195.4730

 370.00  VIB.     0.1735D+13                 22878.4701   123.3597   117.8369
         ROT.     0.2013D+08                  1102.8996     2.9808    36.4010
         INT.     0.3492D+20                 23981.3697   126.3406   154.2378
         TRA.     0.1000D+29                  1838.1660     4.9680    44.7895
         TOT.                     -223.100   25819.5357   131.3086   199.0273

 380.00  VIB.     0.4022D+13                 24127.7035   126.4798   121.1682
         ROT.     0.2095D+08                  1132.7077     2.9808    36.4805
         INT.     0.8426D+20                 25260.4112   129.4606   157.6486
         TRA.     0.1041D+29                  1887.8462     4.9680    44.9220
         TOT.                     -221.771   27148.2574   134.4286   202.5706

 390.00  VIB.     0.9323D+13                 25407.9195   129.5559   124.4934
         ROT.     0.2178D+08                  1162.5158     2.9808    36.5579
         INT.     0.2031D+21                 26570.4354   132.5367   161.0513
         TRA.     0.1083D+29                  1937.5263     4.9680    45.0510
         TOT.                     -220.412   28507.9617   137.5047   206.1023

 400.00  VIB.     0.2161D+14                 26718.6681   132.5860   127.8118
         ROT.     0.2263D+08                  1192.3239     2.9808    36.6334
         INT.     0.4888D+21                 27910.9920   135.5668   164.4451
         TRA.     0.1125D+29                  1987.2065     4.9680    45.1768
         TOT.                     -219.021   29898.1985   140.5348   209.6220

   *: NOTE: HEATS OF FORMATION ARE RELATIVE TO THE
             ELEMENTS IN THEIR STANDARD STATE AT 298K
              (=  Standard Enthalpy of Formation).
            Heat of Formation at T is calculated as [Escf + (HT - H298.15)-.

            Hvib:  Zero-point energy is not included.
                   Wi < 100 cm-1 are not included.
            Hrot = (3/2)RT
            Htra = (3/2)RT + pV = (5/2)RT

            Heat capacity is Cp, not Cv

                 See Section 8.20 in Manual for further information.   (by TH).

           FORCE CONSTANT IN CARTESIAN COORDINATES (Millidynes/A)

    ATOM   CHEMICAL       X               Y               Z
   NUMBER   SYMBOL  FORCE CONSTANT  FORCE CONSTANT  FORCE CONSTANT

      1       C        7.261930        7.826071        7.697605
      2       C        6.859409        7.507687        6.151469
      3       C        7.839786       12.221783        3.916381
      4       C        9.008699       11.515931        3.733259
      5       C        7.554311        7.449746        7.262042
      6       C        7.453911       11.906373        5.100396
      7       C        8.059388       11.055621        4.889240
      8       C        7.345056        6.785647        6.437168
      9       C        7.688362        7.253184        7.942566
     10       C        7.164768        6.961486        6.187578
     11       C        7.364292       12.417015        4.892584
     12       O        2.663385        9.745625        1.335097
     13       O        5.570918        5.892648        1.787007
     14       C        9.158581       11.688169        3.820898
     15       O        4.377131        7.987088        0.994053
     16       C        6.767367        7.415221        6.245277
     17       H        1.085797        1.488093        2.653313
     18       H        1.120926        1.674839        2.533472
     19       H        2.021664        2.296913        1.193518
     20       H        1.565171        3.008068        0.719728
     21       H        0.854844        0.644438        3.752665
     22       H        1.833838        2.924704        0.633283
     23       H        0.902082        0.607219        3.732334
     24       H        4.041932        0.746804        0.572611
     25       H        0.618353        1.117997        3.485107
     26       C        8.729540        5.062136        9.401174
     27       C        8.552056        5.301789        9.807251
     28       C        8.355140        4.730093        8.895405
     29       C        9.185284        5.499814        8.998417
     30       H        1.902108        1.761200        1.667975
     31       C        7.636896        5.142491        9.346776
     32       C        7.986498        4.964980        9.183226
     33       H        3.182008        0.883493        1.291824
     34       H        1.921532        1.814023        1.672784
     35       O        5.369481        2.401012        3.353429
     36       H        1.106203        0.822209        1.901738
     37       O        3.120356        2.145303        5.847401
     38       H        1.364900        1.364458        1.575035
     39       C        6.424546        6.435346        6.803544
     40       H        0.855406        2.024572        2.454131
     41       H        4.123009        0.520402        0.683953
     42       H        0.897387        3.467005        0.988245
     43       C        6.413119        6.854676        6.398817
     44       H        0.914285        2.392581        2.026710
     45       H        0.882023        0.987005        3.463388
     46       H        4.109304        0.704372        0.527135
     47       C        6.460030        6.324183        6.864759
     48       H        1.659002        2.901590        0.746542
     49       H        1.870483        2.721246        0.736750
     50       H        2.150143        0.512329        2.667046
     51       C        6.637180        6.334773        6.684423
     52       H        1.180870        0.513262        3.643659
     53       H        1.977838        2.721839        0.631667
     54       H        1.780821        2.917580        0.645523



 TOTAL CPU TIME:            68.75 SECONDS

 == MOPAC DONE ==
