 *******************************************************************************
 ** Site#:  958            For non-commercial use only         Version 9.015L **
 *******************************************************************************
 ** Cite this work as: MOPAC2009, James J. P. Stewart, Stewart Computational  **
 ** Chemistry, Version 9.015L web: HTTP://OpenMOPAC.net                       **
 *******************************************************************************
 **                                                                           **
 **                                MOPAC2009                                  **
 **                                                                           **
 *******************************************************************************

                            PM6 CALCULATION RESULTS


 *******************************************************************************
 *  CALCULATION DONE:                                Wed Sep  7 04:32:30 2011  *
 *  PM6      - The PM6 Hamiltonian to be used
 *  PDBOUT   - PRINT GEOMETY IN PDB FORMAT
 *  MOZYME   - USE LOCALIZED M.O.s IN SOLVING THE SCF EQUATIONS
 *
 *
 *
 *                 CHARGE ON SYSTEM =     0
 *
 *
 *
 *  EPS= 78.400
 *  RSOLV=  1.300
 *  LET      - OVERRIDE SOME SAFETY CHECKS
 *  XYZ      - CARTESIAN COORDINATE SYSTEM TO BE USED
 *  LBFGS    - USE THE LBFGS GEOMETRY OPTIMIZER
 *  1SCF     - DO 1 SCF AND THEN STOP 
 *  T=       - A TIME OF  0.3E+08 SECONDS REQUESTED
 *  DUMP=N   - RESTART FILE WRITTEN EVERY  4320.000 SECONDS
 *  DDMIN=   - MINIMUM TRUST RADIUS  0.000 ANG/RAD
 *  GNORM=   - EXIT WHEN GRADIENT NORM DROPS BELOW .150    
 *  RELSCF   - DEFAULT SCF CRITERION MULTIPLIED BY   0.100    
 *             (DEFAULT SCFCRT= 0.00010)
 *  MULLIK   - THE MULLIKEN ANALYSIS TO BE PERFORMED
 *******************************************************************************
 PM6 T=31492102 DUMP=4320 XYZ EPS=78.40 RSOLV=1.30 MULLIK LBFGS MOZYME PDBOUT +
 CHARGE=-0 RELSCF=0.1 LET DDMIN=0.0 GNORM=0.15 1SCF
 SJ000001528-1_T001S001I001C01_002: Geometry optimization step

   ATOM   CHEMICAL          X               Y              Z
  NUMBER   SYMBOL      (ANGSTROMS)     (ANGSTROMS)    (ANGSTROMS)
 
     1       C         -2.6710000  *  -26.861000  *   12.438000  *
     2       C         -1.3610000  *  -27.105000  *   12.075000  *
     3       C         -0.3330000  *  -26.377000  *   12.658000  *
     4       C         -0.6250000  *  -25.404000  *   13.605000  *
     5       C         -1.9380000  *  -25.165000  *   13.963000  *
     6       C         -2.9600000  *  -25.888000  *   13.377000  *
     7       H         -1.1360000  *  -27.863000  *   11.338000  *
     8       H          0.1720000  *  -24.837000  *   14.061000  *
     9       H         -2.1670000  *  -24.409000  *   14.700000  *
    10       H         -3.9850000  *  -25.699000  *   13.658000  *
    11       N          0.9980000  *  -26.622000  *   12.291000  *
    12       C          2.0090000  *  -26.849000  *   13.148000  *
    13       O          1.9220000  *  -26.875000  *   14.359000  *
    14       C          3.2460000  *  -27.062000  *   12.366000  *
    15       C          2.9100000  *  -26.951000  *   11.069000  *
    16       H          4.2300000  *  -27.266000  *   12.760000  *
    17       C          1.4560000  *  -26.673000  *   11.028000  *
    18       H          3.5710000  *  -27.050000  *   10.221000  *
    19       O          0.7930000  *  -26.511000  *   10.024000  *
    20       C         -3.7870000  *  -27.651000  *   11.805000  *
    21       F         -4.1370000  *  -27.066000  *   10.583000  *
    22       F         -4.8990000  *  -27.653000  *   12.655000  *
    23       F         -3.3640000  *  -28.967000  *   11.587000  *
 


          CARTESIAN COORDINATES 

    NO.       ATOM         X         Y         Z

     1         C       -2.6710  -26.8610   12.4380
     2         C       -1.3610  -27.1050   12.0750
     3         C       -0.3330  -26.3770   12.6580
     4         C       -0.6250  -25.4040   13.6050
     5         C       -1.9380  -25.1650   13.9630
     6         C       -2.9600  -25.8880   13.3770
     7         H       -1.1360  -27.8630   11.3380
     8         H        0.1720  -24.8370   14.0610
     9         H       -2.1670  -24.4090   14.7000
    10         H       -3.9850  -25.6990   13.6580
    11         N        0.9980  -26.6220   12.2910
    12         C        2.0090  -26.8490   13.1480
    13         O        1.9220  -26.8750   14.3590
    14         C        3.2460  -27.0620   12.3660
    15         C        2.9100  -26.9510   11.0690
    16         H        4.2300  -27.2660   12.7600
    17         C        1.4560  -26.6730   11.0280
    18         H        3.5710  -27.0500   10.2210
    19         O        0.7930  -26.5110   10.0240
    20         C       -3.7870  -27.6510   11.8050
    21         F       -4.1370  -27.0660   10.5830
    22         F       -4.8990  -27.6530   12.6550
    23         F       -3.3640  -28.9670   11.5870

 General Reference for PM6:
 "Optimization of Parameters for Semiempirical Methods V: Modification of NDDO Approximations
 and Application to 70 Elements", J. J. P. Stewart, J. Mol. Mod., 13, 1173-1213 (2007)
 URL: http://www.springerlink.com/content/ar33482301010477/fulltext.pdf

           Empirical Formula: C11 H6 N O2 F3  =    23 atoms



      MOLECULAR POINT GROUP   :   C1  
 
   NUMBER AND TYPES OF BONDS IDENTIFIED
 
         SIGMA BONDS               24
         LONE PAIRS                14
         NORMAL PI BONDS            5
         AROMATIC RING PI BONDS     1
 

                  Ramachandran Angles
              Residue    phi    psi  omega

  
  SCF CRITERION =    0.1000E-02

 -------------------------------------------------------------------------------
 PM6 T=31492102 DUMP=4320 XYZ EPS=78.40 RSOLV=1.30 MULLIK LBFGS MOZYME PDBOUT +
 CHARGE=-0 RELSCF=0.1 LET DDMIN=0.0 GNORM=0.15 1SCF
 SJ000001528-1_T001S001I001C01_002: Geometry optimization step



     1SCF WAS SPECIFIED, SO BFGS WAS NOT USED                 
     SCF FIELD WAS ACHIEVED                                   


                               PM6     CALCULATION
                                                       MOPAC2009 (Version: 9.015L)
                                                       Wed Sep  7 04:32:30 2011




          FINAL HEAT OF FORMATION =       -162.52210 KCAL =    -679.99248 KJ
          VAN DER WAALS AREA      =        230.98 SQUARE ANGSTROMS


          TOTAL ENERGY            =      -3605.58207 EV
          ELECTRONIC ENERGY       =     -18648.53443 EV
          CORE-CORE REPULSION     =      15042.95236 EV
          DIELECTRIC ENERGY       =         -0.57314 EV
          COSMO AREA              =        230.98 SQUARE ANGSTROMS
          COSMO VOLUME            =        245.11 CUBIC ANGSTROMS

          NO. OF FILLED LEVELS    =         44
          MOLECULAR WEIGHT        =        241.169

          MOLECULAR DIMENSIONS (Angstroms)

            Atom       Atom       Distance
            F    22    H    18     8.83339
            F    23    H     9     5.61583
            F    21    O    13     4.35529


          SCF CALCULATIONS        =          2
          COMPUTATION TIME        =          0.174 SECONDS




   ATOM           CHEMICAL             X               Y              Z
  NUMBER           SYMBOL         (ANGSTROMS)     (ANGSTROMS)    (ANGSTROMS)
 
     1       C(     1  C     )   -2.6710000  *  -26.861000  *   12.438000  *
     2       C(     2  C     )   -1.3610000  *  -27.105000  *   12.075000  *
     3       C(     3  C     )   -0.3330000  *  -26.377000  *   12.658000  *
     4       C(     4  C     )   -0.6250000  *  -25.404000  *   13.605000  *
     5       C(     5  C     )   -1.9380000  *  -25.165000  *   13.963000  *
     6       C(     6  C     )   -2.9600000  *  -25.888000  *   13.377000  *
     7       H(     7  C     )   -1.1360000  *  -27.863000  *   11.338000  *
     8       H(     8  C     )    0.1720000  *  -24.837000  *   14.061000  *
     9       H(     9  C     )   -2.1670000  *  -24.409000  *   14.700000  *
    10       H(    10  C     )   -3.9850000  *  -25.699000  *   13.658000  *
    11       N(    11  N     )    0.9980000  *  -26.622000  *   12.291000  *
    12       C(    12  C     )    2.0090000  *  -26.849000  *   13.148000  *
    13       O(    13  O     )    1.9220000  *  -26.875000  *   14.359000  *
    14       C(    14  C     )    3.2460000  *  -27.062000  *   12.366000  *
    15       C(    15  C     )    2.9100000  *  -26.951000  *   11.069000  *
    16       H(    16  C     )    4.2300000  *  -27.266000  *   12.760000  *
    17       C(    17  C     )    1.4560000  *  -26.673000  *   11.028000  *
    18       H(    18  C     )    3.5710000  *  -27.050000  *   10.221000  *
    19       O(    19  O     )    0.7930000  *  -26.511000  *   10.024000  *
    20       C(    20  C     )   -3.7870000  *  -27.651000  *   11.805000  *
    21       F(    21  F     )   -4.1370000  *  -27.066000  *   10.583000  *
    22       F(    22  F     )   -4.8990000  *  -27.653000  *   12.655000  *
    23       F(    23  F     )   -3.3640000  *  -28.967000  *   11.587000  *

           Empirical Formula: C11 H6 N O2 F3  =    23 atoms



              NET ATOMIC CHARGES AND DIPOLE CONTRIBUTIONS

  ATOM NO.   TYPE          CHARGE      No. of ELECS.   s-Pop       p-Pop       
    1          C          -0.133729        4.1337     1.08809     3.04564
    2          C          -0.135896        4.1359     1.10307     3.03282
    3          C           0.127381        3.8726     1.05465     2.81797
    4          C          -0.140384        4.1404     1.10927     3.03112
    5          C          -0.128468        4.1285     1.10198     3.02648
    6          C          -0.090748        4.0907     1.10290     2.98785
    7          H           0.191326        0.8087     0.80867
    8          H           0.186440        0.8136     0.81356
    9          H           0.181242        0.8188     0.81876
   10          H           0.179457        0.8205     0.82054
   11          N          -0.381177        5.3812     1.47451     3.90666
   12          C           0.611759        3.3882     1.06175     2.32649
   13          O          -0.527764        6.5278     1.85154     4.67622
   14          C          -0.217956        4.2180     1.14419     3.07377
   15          C          -0.214083        4.2141     1.14478     3.06930
   16          H           0.225371        0.7746     0.77463
   17          C           0.610052        3.3899     1.06229     2.32766
   18          H           0.225246        0.7748     0.77475
   19          O          -0.527277        6.5273     1.85136     4.67591
   20          C           0.491078        3.5089     1.17737     2.33155
   21          F          -0.177891        7.1779     1.97720     5.20069
   22          F          -0.176567        7.1766     1.97711     5.19946
   23          F          -0.177412        7.1774     1.97711     5.20030


          CARTESIAN COORDINATES 

    NO.       ATOM               X         Y         Z

     1         C                 -2.6710  -26.8610   12.4380
     2         C                 -1.3610  -27.1050   12.0750
     3         C                 -0.3330  -26.3770   12.6580
     4         C                 -0.6250  -25.4040   13.6050
     5         C                 -1.9380  -25.1650   13.9630
     6         C                 -2.9600  -25.8880   13.3770
     7         H                 -1.1360  -27.8630   11.3380
     8         H                  0.1720  -24.8370   14.0610
     9         H                 -2.1670  -24.4090   14.7000
    10         H                 -3.9850  -25.6990   13.6580
    11         N                  0.9980  -26.6220   12.2910
    12         C                  2.0090  -26.8490   13.1480
    13         O                  1.9220  -26.8750   14.3590
    14         C                  3.2460  -27.0620   12.3660
    15         C                  2.9100  -26.9510   11.0690
    16         H                  4.2300  -27.2660   12.7600
    17         C                  1.4560  -26.6730   11.0280
    18         H                  3.5710  -27.0500   10.2210
    19         O                  0.7930  -26.5110   10.0240
    20         C                 -3.7870  -27.6510   11.8050
    21         F                 -4.1370  -27.0660   10.5830
    22         F                 -4.8990  -27.6530   12.6550
    23         F                 -3.3640  -28.9670   11.5870


          ATOMIC ORBITAL ELECTRON POPULATIONS

   1.08809   0.96616   1.03470   1.04478   1.10307   0.96569   1.03001   1.03712
   1.05465   0.81527   0.99322   1.00948   1.10927   1.05053   0.98779   0.99280
   1.10198   0.96537   1.03213   1.02898   1.10290   1.08327   0.95172   0.95287
   0.80867   0.81356   0.81876   0.82054   1.47451   1.14146   1.60839   1.15681
   1.06175   0.83856   0.67896   0.80896   1.85154   1.84714   1.53694   1.29214
   1.14419   1.08247   0.98139   1.00991   1.14478   1.01938   0.97445   1.07547
   0.77463   1.06229   0.86869   0.68079   0.77818   0.77475   1.85136   1.69082
   1.52646   1.45864   1.17737   0.80370   0.76990   0.75795   1.97720   1.94225
   1.83658   1.42185   1.97711   1.53286   1.97888   1.68772   1.97711   1.90066
   1.33618   1.96346

           MULLIKEN POPULATION ANALYSIS



        MULLIKEN POPULATIONS AND CHARGES

      NO.  ATOM   POPULATION      CHARGE
        1    C     4.156016     -0.156016
        2    C     4.179242     -0.179242
        3    C     3.838987      0.161013
        4    C     4.192593     -0.192593
        5    C     4.181301     -0.181301
        6    C     4.135433     -0.135433
        7    H     0.748206      0.251794
        8    H     0.754289      0.245711
        9    H     0.761346      0.238654
       10    H     0.763020      0.236980
       11    N     5.546290     -0.546290
       12    C     3.315647      0.684353
       13    O     6.546705     -0.546705
       14    C     4.283682     -0.283682
       15    C     4.279300     -0.279300
       16    H     0.705455      0.294545
       17    C     3.317486      0.682514
       18    H     0.705704      0.294296
       19    O     6.546263     -0.546263
       20    C     3.486649      0.513351
       21    F     7.186031     -0.186031
       22    F     7.184764     -0.184764
       23    F     7.185589     -0.185589



 TOTAL CPU TIME:             0.18 SECONDS

 == MOPAC DONE ==
 *******************************************************************************
 ** Site#:  958            For non-commercial use only         Version 9.015L **
 *******************************************************************************
 ** Cite this work as: MOPAC2009, James J. P. Stewart, Stewart Computational  **
 ** Chemistry, Version 9.015L web: HTTP://OpenMOPAC.net                       **
 *******************************************************************************
 **                                                                           **
 **                                MOPAC2009                                  **
 **                                                                           **
 *******************************************************************************

                            PM6 CALCULATION RESULTS


 *******************************************************************************
 *  CALCULATION DONE:                                Wed Sep  7 04:32:30 2011  *
 *  PM6      - The PM6 Hamiltonian to be used
 *  GEO-OK   - OVERRIDE INTERATOMIC DISTANCE CHECK
 *  MOZYME   - USE LOCALIZED M.O.s IN SOLVING THE SCF EQUATIONS
 *
 *
 *
 *                 CHARGE ON SYSTEM =     0
 *
 *
 *
 *  EPS= 78.400
 *  RSOLV=  1.300
 *  OLDGEO   - PREVIOUS GEOMETRY TO BE USED
 *  T=       - A TIME OF 172800.0 SECONDS REQUESTED
 *  DUMP=N   - RESTART FILE WRITTEN EVERY  4320.000 SECONDS
 *  RELSCF   - DEFAULT SCF CRITERION MULTIPLIED BY   0.100    
 *             (DEFAULT SCFCRT= 0.00010)
 *  THERMO   - THERMODYNAMIC QUANTITIES TO BE CALCULATED
 *******************************************************************************
 PM6 DUMP=4320 MOZYME RELSCF=0.1 THERMO EPS=78.40 RSOLV=1.30 +
 OLDGEO GEO-OK CHARGE=-0
 SJ000001528-1_T001S001I001C01_002: Free energy calculation

   ATOM           CHEMICAL             X               Y              Z
  NUMBER           SYMBOL         (ANGSTROMS)     (ANGSTROMS)    (ANGSTROMS)
 
     1       C(     1  C     )   -2.6710000  *  -26.861000  *   12.438000  *
     2       C(     2  C     )   -1.3610000  *  -27.105000  *   12.075000  *
     3       C(     3  C     )   -0.3330000  *  -26.377000  *   12.658000  *
     4       C(     4  C     )   -0.6250000  *  -25.404000  *   13.605000  *
     5       C(     5  C     )   -1.9380000  *  -25.165000  *   13.963000  *
     6       C(     6  C     )   -2.9600000  *  -25.888000  *   13.377000  *
     7       H(     7  C     )   -1.1360000  *  -27.863000  *   11.338000  *
     8       H(     8  C     )    0.1720000  *  -24.837000  *   14.061000  *
     9       H(     9  C     )   -2.1670000  *  -24.409000  *   14.700000  *
    10       H(    10  C     )   -3.9850000  *  -25.699000  *   13.658000  *
    11       N(    11  N     )    0.9980000  *  -26.622000  *   12.291000  *
    12       C(    12  C     )    2.0090000  *  -26.849000  *   13.148000  *
    13       O(    13  O     )    1.9220000  *  -26.875000  *   14.359000  *
    14       C(    14  C     )    3.2460000  *  -27.062000  *   12.366000  *
    15       C(    15  C     )    2.9100000  *  -26.951000  *   11.069000  *
    16       H(    16  C     )    4.2300000  *  -27.266000  *   12.760000  *
    17       C(    17  C     )    1.4560000  *  -26.673000  *   11.028000  *
    18       H(    18  C     )    3.5710000  *  -27.050000  *   10.221000  *
    19       O(    19  O     )    0.7930000  *  -26.511000  *   10.024000  *
    20       C(    20  C     )   -3.7870000  *  -27.651000  *   11.805000  *
    21       F(    21  F     )   -4.1370000  *  -27.066000  *   10.583000  *
    22       F(    22  F     )   -4.8990000  *  -27.653000  *   12.655000  *
    23       F(    23  F     )   -3.3640000  *  -28.967000  *   11.587000  *
 


          CARTESIAN COORDINATES 

    NO.       ATOM         X         Y         Z

     1         C       -2.6710  -26.8610   12.4380
     2         C       -1.3610  -27.1050   12.0750
     3         C       -0.3330  -26.3770   12.6580
     4         C       -0.6250  -25.4040   13.6050
     5         C       -1.9380  -25.1650   13.9630
     6         C       -2.9600  -25.8880   13.3770
     7         H       -1.1360  -27.8630   11.3380
     8         H        0.1720  -24.8370   14.0610
     9         H       -2.1670  -24.4090   14.7000
    10         H       -3.9850  -25.6990   13.6580
    11         N        0.9980  -26.6220   12.2910
    12         C        2.0090  -26.8490   13.1480
    13         O        1.9220  -26.8750   14.3590
    14         C        3.2460  -27.0620   12.3660
    15         C        2.9100  -26.9510   11.0690
    16         H        4.2300  -27.2660   12.7600
    17         C        1.4560  -26.6730   11.0280
    18         H        3.5710  -27.0500   10.2210
    19         O        0.7930  -26.5110   10.0240
    20         C       -3.7870  -27.6510   11.8050
    21         F       -4.1370  -27.0660   10.5830
    22         F       -4.8990  -27.6530   12.6550
    23         F       -3.3640  -28.9670   11.5870

 General Reference for PM6:
 "Optimization of Parameters for Semiempirical Methods V: Modification of NDDO Approximations
 and Application to 70 Elements", J. J. P. Stewart, J. Mol. Mod., 13, 1173-1213 (2007)
 URL: http://www.springerlink.com/content/ar33482301010477/fulltext.pdf

           Empirical Formula: C11 H6 N O2 F3  =    23 atoms



      MOLECULAR POINT GROUP   :   C1  
 
   NUMBER AND TYPES OF BONDS IDENTIFIED
 
         SIGMA BONDS               24
         LONE PAIRS                14
         NORMAL PI BONDS            5
         AROMATIC RING PI BONDS     1
 
  SCF CRITERION =    0.1000E-02


          HEAT OF FORMATION =    -162.522146 KCALS/MOLE


          INTERNAL COORDINATE DERIVATIVES

   NUMBER  ATOM       BOND         ANGLE      DIHEDRAL

     1       C
     2       C      9.692019
     3       C     17.948971     0.899297
     4       C    -10.797114    21.101446    -0.042462
     5       C     35.657011     0.659679     0.186414
     6       C     -4.751393   -18.719010     0.120460
     7       H      5.408473   -12.118381     0.190301
     8       H     19.547085    -2.391210    -0.347925
     9       H     -8.057775     9.178142     0.738513
    10       H     -5.180332   -11.133759    -0.129536
    11       N      5.170980    -9.263348     0.025261
    12       C     11.748840    -4.385131     1.017569
    13       O     80.481170     0.794207     0.163015
    14       C    -43.827605   -84.536761  -102.953712
    15       C      5.079441    -6.119339    -7.454541
    16       H    -34.478657    12.761643    16.032631
    17       C    -33.114677   -12.159376   -15.774481
    18       H      1.706018    -5.219514    -6.414425
    19       O    -45.650375    83.423311   102.584309
    20       C      1.970903     4.971560     6.314862
    21       F      5.266413     6.666557     7.549872
    22       F      4.107439     6.688618    -1.557111
    23       F      5.042703    -5.767064   -69.405137


          GRADIENT NORM = 261.09924



 ** GRADIENT IS TOO LARGE TO ALLOW FORCE MATRIX TO BE CALCULATED, (LIMIT=10) **



 EITHER ADD 'LET' OR REDUCE GRADIENT
 USING 'TS' OR OTHER GEOMETRY OPTIMIZER



 TOTAL CPU TIME:             0.39 SECONDS

 == MOPAC DONE ==
