 *******************************************************************************
 ** Site#:  958            For non-commercial use only         Version 9.015L **
 *******************************************************************************
 ** Cite this work as: MOPAC2009, James J. P. Stewart, Stewart Computational  **
 ** Chemistry, Version 9.015L web: HTTP://OpenMOPAC.net                       **
 *******************************************************************************
 **                                                                           **
 **                                MOPAC2009                                  **
 **                                                                           **
 *******************************************************************************

                            PM6 CALCULATION RESULTS


 *******************************************************************************
 *  CALCULATION DONE:                                Thu Sep  8 06:50:13 2011  *
 *  PM6      - The PM6 Hamiltonian to be used
 *  PDBOUT   - PRINT GEOMETY IN PDB FORMAT
 *  MOZYME   - USE LOCALIZED M.O.s IN SOLVING THE SCF EQUATIONS
 *
 *
 *
 *                 CHARGE ON SYSTEM =     0
 *
 *
 *
 *  EPS= 78.400
 *  RSOLV=  1.300
 *  LET      - OVERRIDE SOME SAFETY CHECKS
 *  XYZ      - CARTESIAN COORDINATE SYSTEM TO BE USED
 *  LBFGS    - USE THE LBFGS GEOMETRY OPTIMIZER
 *  1SCF     - DO 1 SCF AND THEN STOP 
 *  T=       - A TIME OF  0.3E+08 SECONDS REQUESTED
 *  DUMP=N   - RESTART FILE WRITTEN EVERY  4320.000 SECONDS
 *  DDMIN=   - MINIMUM TRUST RADIUS  0.000 ANG/RAD
 *  GNORM=   - EXIT WHEN GRADIENT NORM DROPS BELOW .150    
 *  RELSCF   - DEFAULT SCF CRITERION MULTIPLIED BY   0.100    
 *             (DEFAULT SCFCRT= 0.00010)
 *  MULLIK   - THE MULLIKEN ANALYSIS TO BE PERFORMED
 *******************************************************************************
 PM6 T=31397439 DUMP=4320 XYZ EPS=78.40 RSOLV=1.30 MULLIK LBFGS MOZYME PDBOUT +
 CHARGE=0 RELSCF=0.1 LET DDMIN=0.0 GNORM=0.15 1SCF
 SJ000002349-1_T001S001I001C06_001: Geometry optimization step

   ATOM   CHEMICAL          X               Y              Z
  NUMBER   SYMBOL      (ANGSTROMS)     (ANGSTROMS)    (ANGSTROMS)
 
     1       C         -8.5810000  *  -27.043000  *    8.316000  *
     2       C         -9.1300000  *  -25.673000  *    8.718000  *
     3       C         -8.1650000  *  -24.983000  *    9.653000  *
     4       C         -7.4070000  *  -25.709000  *   10.497000  *
     5       C         -6.4400000  *  -25.021000  *   11.425000  *
     6       C         -6.1580000  *  -23.615000  *   10.957000  *
     7       C         -6.9900000  *  -23.016000  *   10.085000  *
     8       C         -6.7020000  *  -21.611000  *    9.609000  *
     9       C         -6.0100000  *  -20.816000  *   10.716000  *
    10       C         -4.6970000  *  -21.543000  *   11.010000  *
    11       C         -5.0180000  *  -22.948000  *   11.444000  *
    12       O         -4.2820000  *  -23.515000  *   12.226000  *
    13       O         -8.0850000  *  -23.643000  *    9.628000  *
    14       C         -7.5030000  *  -27.113000  *   10.527000  *
    15       O         -6.8150000  *  -27.742000  *   11.305000  *
    16       C         -8.4440000  *  -27.847000  *    9.610000  *
    17       H         -9.2670000  *  -25.063000  *    7.825000  *
    18       H        -10.0900000  *  -25.801000  *    9.219000  *
    19       H         -6.8680000  *  -24.986000  *   12.428000  *
    20       H         -6.0540000  *  -21.652000  *    8.734000  *
    21       H         -7.6390000  *  -21.120000  *    9.343000  *
    22       H         -4.0820000  *  -21.569000  *   10.111000  *
    23       H         -4.1600000  *  -21.027000  *   11.806000  *
    24       H         -9.4180000  *  -27.944000  *   10.086000  *
    25       H         -8.0420000  *  -28.835000  *    9.387000  *
    26       C         -5.1490000  *  -25.798000  *   11.464000  *
    27       C         -4.6220000  *  -26.205000  *   12.682000  *
    28       C         -3.4350000  *  -26.921000  *   12.716000  *
    29       C         -2.7790000  *  -27.228000  *   11.535000  *
    30       H         -3.0220000  *  -27.238000  *   13.662000  *
    31       C         -3.3100000  *  -26.819000  *   10.319000  *
    32       C         -4.4970000  *  -26.111000  *   10.287000  *
    33       H         -2.8000000  *  -27.059000  *    9.399000  *
    34       H         -4.9090000  *  -25.794000  *    9.341000  *
    35       O         -5.2670000  *  -25.902000  *   13.838000  *
    36       H         -5.3990000  *  -24.955000  *   13.979000  *
    37       O         -1.6160000  *  -27.931000  *   11.565000  *
    38       H         -1.7220000  *  -28.877000  *   11.395000  *
    39       C         -9.5560000  *  -27.741000  *    7.365000  *
    40       H        -10.3080000  *  -28.276000  *    7.945000  *
    41       H        -10.0430000  *  -26.998000  *    6.734000  *
    42       H         -9.0090000  *  -28.447000  *    6.740000  *
    43       C         -7.2150000  *  -26.885000  *    7.644000  *
    44       H         -6.4590000  *  -27.408000  *    8.231000  *
    45       H         -7.2530000  *  -27.308000  *    6.641000  *
    46       H         -6.9600000  *  -25.827000  *    7.583000  *
    47       C         -5.7250000  *  -19.390000  *   10.241000  *
    48       H         -4.8890000  *  -19.400000  *    9.541000  *
    49       H         -6.6090000  *  -18.989000  *    9.744000  *
    50       H         -5.4740000  *  -18.764000  *   11.097000  *
    51       C         -6.8870000  *  -20.785000  *   11.970000  *
    52       H         -7.1130000  *  -19.752000  *   12.230000  *
    53       H         -7.8160000  *  -21.323000  *   11.776000  *
    54       H         -6.3580000  *  -21.262000  *   12.795000  *
 


          CARTESIAN COORDINATES 

    NO.       ATOM         X         Y         Z

     1         C       -8.5810  -27.0430    8.3160
     2         C       -9.1300  -25.6730    8.7180
     3         C       -8.1650  -24.9830    9.6530
     4         C       -7.4070  -25.7090   10.4970
     5         C       -6.4400  -25.0210   11.4250
     6         C       -6.1580  -23.6150   10.9570
     7         C       -6.9900  -23.0160   10.0850
     8         C       -6.7020  -21.6110    9.6090
     9         C       -6.0100  -20.8160   10.7160
    10         C       -4.6970  -21.5430   11.0100
    11         C       -5.0180  -22.9480   11.4440
    12         O       -4.2820  -23.5150   12.2260
    13         O       -8.0850  -23.6430    9.6280
    14         C       -7.5030  -27.1130   10.5270
    15         O       -6.8150  -27.7420   11.3050
    16         C       -8.4440  -27.8470    9.6100
    17         H       -9.2670  -25.0630    7.8250
    18         H      -10.0900  -25.8010    9.2190
    19         H       -6.8680  -24.9860   12.4280
    20         H       -6.0540  -21.6520    8.7340
    21         H       -7.6390  -21.1200    9.3430
    22         H       -4.0820  -21.5690   10.1110
    23         H       -4.1600  -21.0270   11.8060
    24         H       -9.4180  -27.9440   10.0860
    25         H       -8.0420  -28.8350    9.3870
    26         C       -5.1490  -25.7980   11.4640
    27         C       -4.6220  -26.2050   12.6820
    28         C       -3.4350  -26.9210   12.7160
    29         C       -2.7790  -27.2280   11.5350
    30         H       -3.0220  -27.2380   13.6620
    31         C       -3.3100  -26.8190   10.3190
    32         C       -4.4970  -26.1110   10.2870
    33         H       -2.8000  -27.0590    9.3990
    34         H       -4.9090  -25.7940    9.3410
    35         O       -5.2670  -25.9020   13.8380
    36         H       -5.3990  -24.9550   13.9790
    37         O       -1.6160  -27.9310   11.5650
    38         H       -1.7220  -28.8770   11.3950
    39         C       -9.5560  -27.7410    7.3650
    40         H      -10.3080  -28.2760    7.9450
    41         H      -10.0430  -26.9980    6.7340
    42         H       -9.0090  -28.4470    6.7400
    43         C       -7.2150  -26.8850    7.6440
    44         H       -6.4590  -27.4080    8.2310
    45         H       -7.2530  -27.3080    6.6410
    46         H       -6.9600  -25.8270    7.5830
    47         C       -5.7250  -19.3900   10.2410
    48         H       -4.8890  -19.4000    9.5410
    49         H       -6.6090  -18.9890    9.7440
    50         H       -5.4740  -18.7640   11.0970
    51         C       -6.8870  -20.7850   11.9700
    52         H       -7.1130  -19.7520   12.2300
    53         H       -7.8160  -21.3230   11.7760
    54         H       -6.3580  -21.2620   12.7950

 General Reference for PM6:
 "Optimization of Parameters for Semiempirical Methods V: Modification of NDDO Approximations
 and Application to 70 Elements", J. J. P. Stewart, J. Mol. Mod., 13, 1173-1213 (2007)
 URL: http://www.springerlink.com/content/ar33482301010477/fulltext.pdf

           Empirical Formula: C23 H26 O5  =    54 atoms



      MOLECULAR POINT GROUP   :   C1  
 
   NUMBER AND TYPES OF BONDS IDENTIFIED
 
         SIGMA BONDS               57
         LONE PAIRS                10
         NORMAL PI BONDS            6
         AROMATIC RING PI BONDS     1
 

                  Ramachandran Angles
              Residue    phi    psi  omega

  
  SCF CRITERION =    0.1000E-02

 -------------------------------------------------------------------------------
 PM6 T=31397439 DUMP=4320 XYZ EPS=78.40 RSOLV=1.30 MULLIK LBFGS MOZYME PDBOUT +
 CHARGE=0 RELSCF=0.1 LET DDMIN=0.0 GNORM=0.15 1SCF
 SJ000002349-1_T001S001I001C06_001: Geometry optimization step



     1SCF WAS SPECIFIED, SO BFGS WAS NOT USED                 
     SCF FIELD WAS ACHIEVED                                   


                               PM6     CALCULATION
                                                       MOPAC2009 (Version: 9.015L)
                                                       Thu Sep  8 06:50:14 2011




          FINAL HEAT OF FORMATION =       -182.45373 KCAL =    -763.38643 KJ
          VAN DER WAALS AREA      =        359.03 SQUARE ANGSTROMS


          TOTAL ENERGY            =      -4641.41276 EV
          ELECTRONIC ENERGY       =     -42006.01523 EV
          CORE-CORE REPULSION     =      37364.60246 EV
          DIELECTRIC ENERGY       =         -1.40533 EV
          COSMO AREA              =        359.03 SQUARE ANGSTROMS
          COSMO VOLUME            =        444.48 CUBIC ANGSTROMS

          NO. OF FILLED LEVELS    =         74
          MOLECULAR WEIGHT        =        382.455

          MOLECULAR DIMENSIONS (Angstroms)

            Atom       Atom       Distance
            H    50    H    40    11.12568
            H    49    H    38     9.48733
            H    45    H    36     5.56582


          SCF CALCULATIONS        =          2
          COMPUTATION TIME        =          0.608 SECONDS




   ATOM           CHEMICAL             X               Y              Z
  NUMBER           SYMBOL         (ANGSTROMS)     (ANGSTROMS)    (ANGSTROMS)
 
     1       C(     1  C     )   -8.5810000  *  -27.043000  *    8.316000  *
     2       C(     2  C     )   -9.1300000  *  -25.673000  *    8.718000  *
     3       C(     3  C     )   -8.1650000  *  -24.983000  *    9.653000  *
     4       C(     4  C     )   -7.4070000  *  -25.709000  *   10.497000  *
     5       C(     5  C     )   -6.4400000  *  -25.021000  *   11.425000  *
     6       C(     6  C     )   -6.1580000  *  -23.615000  *   10.957000  *
     7       C(     7  C     )   -6.9900000  *  -23.016000  *   10.085000  *
     8       C(     8  C     )   -6.7020000  *  -21.611000  *    9.609000  *
     9       C(     9  C     )   -6.0100000  *  -20.816000  *   10.716000  *
    10       C(    10  C     )   -4.6970000  *  -21.543000  *   11.010000  *
    11       C(    11  C     )   -5.0180000  *  -22.948000  *   11.444000  *
    12       O(    12  O     )   -4.2820000  *  -23.515000  *   12.226000  *
    13       O(    13  O     )   -8.0850000  *  -23.643000  *    9.628000  *
    14       C(    14  C     )   -7.5030000  *  -27.113000  *   10.527000  *
    15       O(    15  O     )   -6.8150000  *  -27.742000  *   11.305000  *
    16       C(    16  C     )   -8.4440000  *  -27.847000  *    9.610000  *
    17       H(    17  C     )   -9.2670000  *  -25.063000  *    7.825000  *
    18       H(    18  C     )  -10.0900000  *  -25.801000  *    9.219000  *
    19       H(    19  C     )   -6.8680000  *  -24.986000  *   12.428000  *
    20       H(    20  C     )   -6.0540000  *  -21.652000  *    8.734000  *
    21       H(    21  C     )   -7.6390000  *  -21.120000  *    9.343000  *
    22       H(    22  C     )   -4.0820000  *  -21.569000  *   10.111000  *
    23       H(    23  C     )   -4.1600000  *  -21.027000  *   11.806000  *
    24       H(    24  C     )   -9.4180000  *  -27.944000  *   10.086000  *
    25       H(    25  C     )   -8.0420000  *  -28.835000  *    9.387000  *
    26       C(    26  C     )   -5.1490000  *  -25.798000  *   11.464000  *
    27       C(    27  C     )   -4.6220000  *  -26.205000  *   12.682000  *
    28       C(    28  C     )   -3.4350000  *  -26.921000  *   12.716000  *
    29       C(    29  C     )   -2.7790000  *  -27.228000  *   11.535000  *
    30       H(    30  C     )   -3.0220000  *  -27.238000  *   13.662000  *
    31       C(    31  C     )   -3.3100000  *  -26.819000  *   10.319000  *
    32       C(    32  C     )   -4.4970000  *  -26.111000  *   10.287000  *
    33       H(    33  C     )   -2.8000000  *  -27.059000  *    9.399000  *
    34       H(    34  C     )   -4.9090000  *  -25.794000  *    9.341000  *
    35       O(    35  O     )   -5.2670000  *  -25.902000  *   13.838000  *
    36       H(    36  O     )   -5.3990000  *  -24.955000  *   13.979000  *
    37       O(    37  O     )   -1.6160000  *  -27.931000  *   11.565000  *
    38       H(    38  O     )   -1.7220000  *  -28.877000  *   11.395000  *
    39       C(    39  C     )   -9.5560000  *  -27.741000  *    7.365000  *
    40       H(    40  C     )  -10.3080000  *  -28.276000  *    7.945000  *
    41       H(    41  C     )  -10.0430000  *  -26.998000  *    6.734000  *
    42       H(    42  C     )   -9.0090000  *  -28.447000  *    6.740000  *
    43       C(    43  C     )   -7.2150000  *  -26.885000  *    7.644000  *
    44       H(    44  C     )   -6.4590000  *  -27.408000  *    8.231000  *
    45       H(    45  C     )   -7.2530000  *  -27.308000  *    6.641000  *
    46       H(    46  C     )   -6.9600000  *  -25.827000  *    7.583000  *
    47       C(    47  C     )   -5.7250000  *  -19.390000  *   10.241000  *
    48       H(    48  C     )   -4.8890000  *  -19.400000  *    9.541000  *
    49       H(    49  C     )   -6.6090000  *  -18.989000  *    9.744000  *
    50       H(    50  C     )   -5.4740000  *  -18.764000  *   11.097000  *
    51       C(    51  C     )   -6.8870000  *  -20.785000  *   11.970000  *
    52       H(    52  C     )   -7.1130000  *  -19.752000  *   12.230000  *
    53       H(    53  C     )   -7.8160000  *  -21.323000  *   11.776000  *
    54       H(    54  C     )   -6.3580000  *  -21.262000  *   12.795000  *

           Empirical Formula: C23 H26 O5  =    54 atoms



              NET ATOMIC CHARGES AND DIPOLE CONTRIBUTIONS

  ATOM NO.   TYPE          CHARGE      No. of ELECS.   s-Pop       p-Pop       
    1          C           0.288008        3.7120     1.06325     2.64875
    2          C          -0.422285        4.4223     1.10746     3.31482
    3          C           0.437766        3.5622     1.10052     2.46171
    4          C          -0.486060        4.4861     1.11013     3.37593
    5          C           0.119902        3.8801     1.05098     2.82912
    6          C          -0.491402        4.4914     1.11026     3.38114
    7          C           0.442292        3.5577     1.10017     2.45753
    8          C          -0.421223        4.4212     1.10718     3.31404
    9          C           0.287650        3.7124     1.06269     2.64966
   10          C          -0.532458        4.5325     1.11808     3.41438
   11          C           0.665497        3.3345     1.07418     2.26033
   12          O          -0.626583        6.6266     1.84470     4.78188
   13          O          -0.344687        6.3447     1.78199     4.56270
   14          C           0.665289        3.3347     1.07382     2.26089
   15          O          -0.621101        6.6211     1.84492     4.77618
   16          C          -0.533227        4.5332     1.11834     3.41488
   17          H           0.198052        0.8019     0.80195
   18          H           0.206431        0.7936     0.79357
   19          H           0.142170        0.8578     0.85783
   20          H           0.206705        0.7933     0.79329
   21          H           0.197824        0.8022     0.80218
   22          H           0.206707        0.7933     0.79329
   23          H           0.201779        0.7982     0.79822
   24          H           0.206312        0.7937     0.79369
   25          H           0.201965        0.7980     0.79804
   26          C          -0.143671        4.1437     1.09598     3.04769
   27          C           0.388223        3.6118     1.05800     2.55377
   28          C          -0.432779        4.4328     1.10789     3.32489
   29          C           0.368697        3.6313     1.05577     2.57554
   30          H           0.198423        0.8016     0.80158
   31          C          -0.358671        4.3587     1.10694     3.25173
   32          C          -0.022163        4.0222     1.09564     2.92652
   33          H           0.183493        0.8165     0.81651
   34          H           0.155957        0.8440     0.84404
   35          O          -0.559127        6.5591     1.77375     4.78538
   36          H           0.369562        0.6304     0.63044
   37          O          -0.576744        6.5767     1.77188     4.80486
   38          H           0.375862        0.6241     0.62414
   39          C          -0.546406        4.5464     1.09574     3.45066
   40          H           0.170956        0.8290     0.82904
   41          H           0.172044        0.8280     0.82796
   42          H           0.174533        0.8255     0.82547
   43          C          -0.558575        4.5586     1.09767     3.46091
   44          H           0.169950        0.8301     0.83005
   45          H           0.176860        0.8231     0.82314
   46          H           0.168885        0.8311     0.83112
   47          C          -0.544772        4.5448     1.09517     3.44960
   48          H           0.169868        0.8301     0.83013
   49          H           0.172182        0.8278     0.82782
   50          H           0.173981        0.8260     0.82602
   51          C          -0.558967        4.5590     1.09721     3.46175
   52          H           0.175275        0.8247     0.82473
   53          H           0.171421        0.8286     0.82858
   54          H           0.170386        0.8296     0.82961


          CARTESIAN COORDINATES 

    NO.       ATOM               X         Y         Z

     1         C                 -8.5810  -27.0430    8.3160
     2         C                 -9.1300  -25.6730    8.7180
     3         C                 -8.1650  -24.9830    9.6530
     4         C                 -7.4070  -25.7090   10.4970
     5         C                 -6.4400  -25.0210   11.4250
     6         C                 -6.1580  -23.6150   10.9570
     7         C                 -6.9900  -23.0160   10.0850
     8         C                 -6.7020  -21.6110    9.6090
     9         C                 -6.0100  -20.8160   10.7160
    10         C                 -4.6970  -21.5430   11.0100
    11         C                 -5.0180  -22.9480   11.4440
    12         O                 -4.2820  -23.5150   12.2260
    13         O                 -8.0850  -23.6430    9.6280
    14         C                 -7.5030  -27.1130   10.5270
    15         O                 -6.8150  -27.7420   11.3050
    16         C                 -8.4440  -27.8470    9.6100
    17         H                 -9.2670  -25.0630    7.8250
    18         H                -10.0900  -25.8010    9.2190
    19         H                 -6.8680  -24.9860   12.4280
    20         H                 -6.0540  -21.6520    8.7340
    21         H                 -7.6390  -21.1200    9.3430
    22         H                 -4.0820  -21.5690   10.1110
    23         H                 -4.1600  -21.0270   11.8060
    24         H                 -9.4180  -27.9440   10.0860
    25         H                 -8.0420  -28.8350    9.3870
    26         C                 -5.1490  -25.7980   11.4640
    27         C                 -4.6220  -26.2050   12.6820
    28         C                 -3.4350  -26.9210   12.7160
    29         C                 -2.7790  -27.2280   11.5350
    30         H                 -3.0220  -27.2380   13.6620
    31         C                 -3.3100  -26.8190   10.3190
    32         C                 -4.4970  -26.1110   10.2870
    33         H                 -2.8000  -27.0590    9.3990
    34         H                 -4.9090  -25.7940    9.3410
    35         O                 -5.2670  -25.9020   13.8380
    36         H                 -5.3990  -24.9550   13.9790
    37         O                 -1.6160  -27.9310   11.5650
    38         H                 -1.7220  -28.8770   11.3950
    39         C                 -9.5560  -27.7410    7.3650
    40         H                -10.3080  -28.2760    7.9450
    41         H                -10.0430  -26.9980    6.7340
    42         H                 -9.0090  -28.4470    6.7400
    43         C                 -7.2150  -26.8850    7.6440
    44         H                 -6.4590  -27.4080    8.2310
    45         H                 -7.2530  -27.3080    6.6410
    46         H                 -6.9600  -25.8270    7.5830
    47         C                 -5.7250  -19.3900   10.2410
    48         H                 -4.8890  -19.4000    9.5410
    49         H                 -6.6090  -18.9890    9.7440
    50         H                 -5.4740  -18.7640   11.0970
    51         C                 -6.8870  -20.7850   11.9700
    52         H                 -7.1130  -19.7520   12.2300
    53         H                 -7.8160  -21.3230   11.7760
    54         H                 -6.3580  -21.2620   12.7950


          ATOMIC ORBITAL ELECTRON POPULATIONS

   1.06325   0.90750   0.85663   0.88461   1.10746   1.10506   1.08803   1.12173
   1.10052   0.86657   0.73666   0.85848   1.11013   1.15673   1.06579   1.15341
   1.05098   0.92979   0.87310   1.02623   1.11026   1.12247   1.08386   1.17481
   1.10017   0.75884   0.88052   0.81817   1.10718   1.18222   0.99371   1.13811
   1.06269   0.87094   0.89617   0.88255   1.11808   1.13192   1.07921   1.20325
   1.07418   0.75884   0.81849   0.68300   1.84470   1.59421   1.73133   1.45634
   1.78199   1.48249   1.32743   1.75278   1.07382   0.70536   0.84128   0.71424
   1.84492   1.52181   1.75567   1.49871   1.11834   1.16468   1.15570   1.09450
   0.80195   0.79357   0.85783   0.79329   0.80218   0.79329   0.79822   0.79369
   0.79804   1.09598   1.01254   1.04663   0.98852   1.05800   0.86214   0.89448
   0.79715   1.10789   1.04741   1.17302   1.10446   1.05577   0.77836   0.87401
   0.92317   0.80158   1.10694   1.05781   1.11485   1.07907   1.09564   0.95290
   0.93448   1.03914   0.81651   0.84404   1.77375   1.80467   1.45904   1.52167
   0.63044   1.77188   1.46079   1.39323   1.95084   0.62414   1.09574   1.14210
   1.16615   1.14241   0.82904   0.82796   0.82547   1.09767   1.09332   1.19100
   1.17659   0.83005   0.82314   0.83112   1.09517   1.18896   1.07808   1.18256
   0.83013   0.82782   0.82602   1.09721   1.15236   1.19998   1.10941   0.82473
   0.82858   0.82961

           MULLIKEN POPULATION ANALYSIS



        MULLIKEN POPULATIONS AND CHARGES

      NO.  ATOM   POPULATION      CHARGE
        1    C     3.682935      0.317065
        2    C     4.541502     -0.541502
        3    C     3.538974      0.461026
        4    C     4.535886     -0.535886
        5    C     3.879311      0.120689
        6    C     4.541359     -0.541359
        7    C     3.534087      0.465913
        8    C     4.540437     -0.540437
        9    C     3.683280      0.316720
       10    C     4.663817     -0.663817
       11    C     3.281795      0.718205
       12    O     6.651863     -0.651863
       13    O     6.391782     -0.391782
       14    C     3.281646      0.718354
       15    O     6.645920     -0.645920
       16    C     4.664940     -0.664940
       17    H     0.745127      0.254873
       18    H     0.736387      0.263613
       19    H     0.811693      0.188307
       20    H     0.736121      0.263879
       21    H     0.745442      0.254558
       22    H     0.737004      0.262996
       23    H     0.740856      0.259144
       24    H     0.737347      0.262653
       25    H     0.740563      0.259437
       26    C     4.160185     -0.160185
       27    C     3.586614      0.413386
       28    C     4.505926     -0.505926
       29    C     3.607590      0.392410
       30    H     0.739297      0.260703
       31    C     4.427214     -0.427214
       32    C     4.056153     -0.056153
       33    H     0.758127      0.241873
       34    H     0.793782      0.206218
       35    O     6.610720     -0.610720
       36    H     0.595856      0.404144
       37    O     6.628223     -0.628223
       38    H     0.589235      0.410765
       39    C     4.693393     -0.693393
       40    H     0.780771      0.219229
       41    H     0.779722      0.220278
       42    H     0.777036      0.222964
       43    C     4.704629     -0.704629
       44    H     0.782872      0.217128
       45    H     0.773842      0.226158
       46    H     0.783936      0.216064
       47    C     4.691835     -0.691835
       48    H     0.781991      0.218009
       49    H     0.779511      0.220489
       50    H     0.777411      0.222589
       51    C     4.705584     -0.705584
       52    H     0.775629      0.224371
       53    H     0.780777      0.219223
       54    H     0.782068      0.217932



 TOTAL CPU TIME:             0.64 SECONDS

 == MOPAC DONE ==
 *******************************************************************************
 ** Site#:  958            For non-commercial use only         Version 9.015L **
 *******************************************************************************
 ** Cite this work as: MOPAC2009, James J. P. Stewart, Stewart Computational  **
 ** Chemistry, Version 9.015L web: HTTP://OpenMOPAC.net                       **
 *******************************************************************************
 **                                                                           **
 **                                MOPAC2009                                  **
 **                                                                           **
 *******************************************************************************

                            PM6 CALCULATION RESULTS


 *******************************************************************************
 *  CALCULATION DONE:                                Thu Sep  8 06:50:14 2011  *
 *  PM6      - The PM6 Hamiltonian to be used
 *  GEO-OK   - OVERRIDE INTERATOMIC DISTANCE CHECK
 *  MOZYME   - USE LOCALIZED M.O.s IN SOLVING THE SCF EQUATIONS
 *
 *
 *
 *                 CHARGE ON SYSTEM =     0
 *
 *
 *
 *  EPS= 78.400
 *  RSOLV=  1.300
 *  OLDGEO   - PREVIOUS GEOMETRY TO BE USED
 *  T=       - A TIME OF 172800.0 SECONDS REQUESTED
 *  DUMP=N   - RESTART FILE WRITTEN EVERY  4320.000 SECONDS
 *  RELSCF   - DEFAULT SCF CRITERION MULTIPLIED BY   0.100    
 *             (DEFAULT SCFCRT= 0.00010)
 *  THERMO   - THERMODYNAMIC QUANTITIES TO BE CALCULATED
 *******************************************************************************
 PM6 DUMP=4320 MOZYME RELSCF=0.1 THERMO EPS=78.40 RSOLV=1.30 +
 OLDGEO GEO-OK CHARGE=0
 SJ000002349-1_T001S001I001C06_001: Free energy calculation

   ATOM           CHEMICAL             X               Y              Z
  NUMBER           SYMBOL         (ANGSTROMS)     (ANGSTROMS)    (ANGSTROMS)
 
     1       C(     1  C     )   -8.5810000  *  -27.043000  *    8.316000  *
     2       C(     2  C     )   -9.1300000  *  -25.673000  *    8.718000  *
     3       C(     3  C     )   -8.1650000  *  -24.983000  *    9.653000  *
     4       C(     4  C     )   -7.4070000  *  -25.709000  *   10.497000  *
     5       C(     5  C     )   -6.4400000  *  -25.021000  *   11.425000  *
     6       C(     6  C     )   -6.1580000  *  -23.615000  *   10.957000  *
     7       C(     7  C     )   -6.9900000  *  -23.016000  *   10.085000  *
     8       C(     8  C     )   -6.7020000  *  -21.611000  *    9.609000  *
     9       C(     9  C     )   -6.0100000  *  -20.816000  *   10.716000  *
    10       C(    10  C     )   -4.6970000  *  -21.543000  *   11.010000  *
    11       C(    11  C     )   -5.0180000  *  -22.948000  *   11.444000  *
    12       O(    12  O     )   -4.2820000  *  -23.515000  *   12.226000  *
    13       O(    13  O     )   -8.0850000  *  -23.643000  *    9.628000  *
    14       C(    14  C     )   -7.5030000  *  -27.113000  *   10.527000  *
    15       O(    15  O     )   -6.8150000  *  -27.742000  *   11.305000  *
    16       C(    16  C     )   -8.4440000  *  -27.847000  *    9.610000  *
    17       H(    17  C     )   -9.2670000  *  -25.063000  *    7.825000  *
    18       H(    18  C     )  -10.0900000  *  -25.801000  *    9.219000  *
    19       H(    19  C     )   -6.8680000  *  -24.986000  *   12.428000  *
    20       H(    20  C     )   -6.0540000  *  -21.652000  *    8.734000  *
    21       H(    21  C     )   -7.6390000  *  -21.120000  *    9.343000  *
    22       H(    22  C     )   -4.0820000  *  -21.569000  *   10.111000  *
    23       H(    23  C     )   -4.1600000  *  -21.027000  *   11.806000  *
    24       H(    24  C     )   -9.4180000  *  -27.944000  *   10.086000  *
    25       H(    25  C     )   -8.0420000  *  -28.835000  *    9.387000  *
    26       C(    26  C     )   -5.1490000  *  -25.798000  *   11.464000  *
    27       C(    27  C     )   -4.6220000  *  -26.205000  *   12.682000  *
    28       C(    28  C     )   -3.4350000  *  -26.921000  *   12.716000  *
    29       C(    29  C     )   -2.7790000  *  -27.228000  *   11.535000  *
    30       H(    30  C     )   -3.0220000  *  -27.238000  *   13.662000  *
    31       C(    31  C     )   -3.3100000  *  -26.819000  *   10.319000  *
    32       C(    32  C     )   -4.4970000  *  -26.111000  *   10.287000  *
    33       H(    33  C     )   -2.8000000  *  -27.059000  *    9.399000  *
    34       H(    34  C     )   -4.9090000  *  -25.794000  *    9.341000  *
    35       O(    35  O     )   -5.2670000  *  -25.902000  *   13.838000  *
    36       H(    36  O     )   -5.3990000  *  -24.955000  *   13.979000  *
    37       O(    37  O     )   -1.6160000  *  -27.931000  *   11.565000  *
    38       H(    38  O     )   -1.7220000  *  -28.877000  *   11.395000  *
    39       C(    39  C     )   -9.5560000  *  -27.741000  *    7.365000  *
    40       H(    40  C     )  -10.3080000  *  -28.276000  *    7.945000  *
    41       H(    41  C     )  -10.0430000  *  -26.998000  *    6.734000  *
    42       H(    42  C     )   -9.0090000  *  -28.447000  *    6.740000  *
    43       C(    43  C     )   -7.2150000  *  -26.885000  *    7.644000  *
    44       H(    44  C     )   -6.4590000  *  -27.408000  *    8.231000  *
    45       H(    45  C     )   -7.2530000  *  -27.308000  *    6.641000  *
    46       H(    46  C     )   -6.9600000  *  -25.827000  *    7.583000  *
    47       C(    47  C     )   -5.7250000  *  -19.390000  *   10.241000  *
    48       H(    48  C     )   -4.8890000  *  -19.400000  *    9.541000  *
    49       H(    49  C     )   -6.6090000  *  -18.989000  *    9.744000  *
    50       H(    50  C     )   -5.4740000  *  -18.764000  *   11.097000  *
    51       C(    51  C     )   -6.8870000  *  -20.785000  *   11.970000  *
    52       H(    52  C     )   -7.1130000  *  -19.752000  *   12.230000  *
    53       H(    53  C     )   -7.8160000  *  -21.323000  *   11.776000  *
    54       H(    54  C     )   -6.3580000  *  -21.262000  *   12.795000  *
 


          CARTESIAN COORDINATES 

    NO.       ATOM         X         Y         Z

     1         C       -8.5810  -27.0430    8.3160
     2         C       -9.1300  -25.6730    8.7180
     3         C       -8.1650  -24.9830    9.6530
     4         C       -7.4070  -25.7090   10.4970
     5         C       -6.4400  -25.0210   11.4250
     6         C       -6.1580  -23.6150   10.9570
     7         C       -6.9900  -23.0160   10.0850
     8         C       -6.7020  -21.6110    9.6090
     9         C       -6.0100  -20.8160   10.7160
    10         C       -4.6970  -21.5430   11.0100
    11         C       -5.0180  -22.9480   11.4440
    12         O       -4.2820  -23.5150   12.2260
    13         O       -8.0850  -23.6430    9.6280
    14         C       -7.5030  -27.1130   10.5270
    15         O       -6.8150  -27.7420   11.3050
    16         C       -8.4440  -27.8470    9.6100
    17         H       -9.2670  -25.0630    7.8250
    18         H      -10.0900  -25.8010    9.2190
    19         H       -6.8680  -24.9860   12.4280
    20         H       -6.0540  -21.6520    8.7340
    21         H       -7.6390  -21.1200    9.3430
    22         H       -4.0820  -21.5690   10.1110
    23         H       -4.1600  -21.0270   11.8060
    24         H       -9.4180  -27.9440   10.0860
    25         H       -8.0420  -28.8350    9.3870
    26         C       -5.1490  -25.7980   11.4640
    27         C       -4.6220  -26.2050   12.6820
    28         C       -3.4350  -26.9210   12.7160
    29         C       -2.7790  -27.2280   11.5350
    30         H       -3.0220  -27.2380   13.6620
    31         C       -3.3100  -26.8190   10.3190
    32         C       -4.4970  -26.1110   10.2870
    33         H       -2.8000  -27.0590    9.3990
    34         H       -4.9090  -25.7940    9.3410
    35         O       -5.2670  -25.9020   13.8380
    36         H       -5.3990  -24.9550   13.9790
    37         O       -1.6160  -27.9310   11.5650
    38         H       -1.7220  -28.8770   11.3950
    39         C       -9.5560  -27.7410    7.3650
    40         H      -10.3080  -28.2760    7.9450
    41         H      -10.0430  -26.9980    6.7340
    42         H       -9.0090  -28.4470    6.7400
    43         C       -7.2150  -26.8850    7.6440
    44         H       -6.4590  -27.4080    8.2310
    45         H       -7.2530  -27.3080    6.6410
    46         H       -6.9600  -25.8270    7.5830
    47         C       -5.7250  -19.3900   10.2410
    48         H       -4.8890  -19.4000    9.5410
    49         H       -6.6090  -18.9890    9.7440
    50         H       -5.4740  -18.7640   11.0970
    51         C       -6.8870  -20.7850   11.9700
    52         H       -7.1130  -19.7520   12.2300
    53         H       -7.8160  -21.3230   11.7760
    54         H       -6.3580  -21.2620   12.7950

 General Reference for PM6:
 "Optimization of Parameters for Semiempirical Methods V: Modification of NDDO Approximations
 and Application to 70 Elements", J. J. P. Stewart, J. Mol. Mod., 13, 1173-1213 (2007)
 URL: http://www.springerlink.com/content/ar33482301010477/fulltext.pdf

           Empirical Formula: C23 H26 O5  =    54 atoms



      MOLECULAR POINT GROUP   :   C1  
 
   NUMBER AND TYPES OF BONDS IDENTIFIED
 
         SIGMA BONDS               57
         LONE PAIRS                10
         NORMAL PI BONDS            6
         AROMATIC RING PI BONDS     1
 
  SCF CRITERION =    0.1000E-02


          HEAT OF FORMATION =    -182.453820 KCALS/MOLE


          INTERNAL COORDINATE DERIVATIVES

   NUMBER  ATOM       BOND         ANGLE      DIHEDRAL

     1       C
     2       C      9.965656
     3       C      8.925892    -2.507118
     4       C    -29.125955   -19.399179   -14.030737
     5       C     37.564135    19.774475    24.665303
     6       C    -49.085392   -12.173297   -19.026293
     7       C      8.178621    -1.801014    -9.925394
     8       C     16.049341    46.035821    18.687939
     9       C    -15.926300   -39.834936   -23.109106
    10       C     11.913634    28.918168    22.908806
    11       C    -12.608075    -6.694580    -4.392534
    12       O      2.697393     5.838896    11.652317
    13       O     -5.606540   -45.415953   -16.253298
    14       C      6.565651   -38.483258    10.171797
    15       O    -38.940168    57.342719   -29.604035
    16       C     40.308030     6.391159    29.631937
    17       H     26.714026   -16.019613    24.123938
    18       H     -4.680320   -10.157188    -9.228756
    19       H     -9.201820    11.503511    -8.311601
    20       H    -10.117883     9.860679     8.916570
    21       H    -10.242881    -1.448886    18.280098
    22       H      6.381727     6.496879   -14.426611
    23       H     -7.312655    13.559304    -6.311625
    24       H      6.121601    -6.816870   -12.535162
    25       H     -2.723243   -13.754847    -4.076665
    26       C      0.864169     5.810916    15.016314
    27       C     12.841490     2.346176     7.267791
    28       C    -15.029950    18.933594    -1.539658
    29       C      4.603578    -6.862933   -12.629460
    30       H      3.595728   -24.100706    23.508212
    31       C     -5.976744    19.639021     4.939398
    32       C      1.345374    -6.106948     5.342045
    33       H     15.615307     1.268647   -18.304967
    34       H      2.750561     3.113599   -12.478331
    35       O      5.546200     0.512874    -6.385492
    36       H     -1.335473     6.974519    -6.041331
    37       O      7.105533   -11.302357    30.480243
    38       H    -13.850342     0.950437    -6.847726
    39       C      4.675677   -26.672108    -9.143761
    40       H     10.673394     6.080485     4.018896
    41       H     -5.804916    -6.440308     3.060070
    42       H      1.975819     8.794414     1.596801
    43       C      1.980579     8.311243    -2.042289
    44       H      4.874388     6.749527     0.134200
    45       H     -1.502171     1.534004     2.037626
    46       H      5.136082    -4.480361    -8.859009
    47       C      4.172427    -3.236404    -8.385553
    48       H      3.908203    -4.269316    -9.969880
    49       H      8.401623     2.956065     2.117691
    50       H     -4.312692    -0.790925    -7.237618
    51       C     -6.352787     0.593472    -4.575812
    52       H     -5.358074    -3.163464    -4.316611
    53       H      0.514550     0.978847    -3.327833
    54       H     -5.824360    -0.075356     7.979706


          GRADIENT NORM = 194.00076



 ** GRADIENT IS TOO LARGE TO ALLOW FORCE MATRIX TO BE CALCULATED, (LIMIT=10) **



 EITHER ADD 'LET' OR REDUCE GRADIENT
 USING 'TS' OR OTHER GEOMETRY OPTIMIZER



 TOTAL CPU TIME:             1.37 SECONDS

 == MOPAC DONE ==
