 *******************************************************************************
 ** Site#:  958            For non-commercial use only         Version 9.015L **
 *******************************************************************************
 ** Cite this work as: MOPAC2009, James J. P. Stewart, Stewart Computational  **
 ** Chemistry, Version 9.015L web: HTTP://OpenMOPAC.net                       **
 *******************************************************************************
 **                                                                           **
 **                                MOPAC2009                                  **
 **                                                                           **
 *******************************************************************************

                            PM6 CALCULATION RESULTS


 *******************************************************************************
 *  CALCULATION DONE:                                Tue Sep  6 17:22:59 2011  *
 *  PM6      - The PM6 Hamiltonian to be used
 *  PDBOUT   - PRINT GEOMETY IN PDB FORMAT
 *  MOZYME   - USE LOCALIZED M.O.s IN SOLVING THE SCF EQUATIONS
 *
 *
 *
 *                 CHARGE ON SYSTEM =    -1
 *
 *
 *
 *  EPS= 78.400
 *  RSOLV=  1.300
 *  LET      - OVERRIDE SOME SAFETY CHECKS
 *  XYZ      - CARTESIAN COORDINATE SYSTEM TO BE USED
 *  LBFGS    - USE THE LBFGS GEOMETRY OPTIMIZER
 *  1SCF     - DO 1 SCF AND THEN STOP 
 *  T=       - A TIME OF  0.3E+08 SECONDS REQUESTED
 *  DUMP=N   - RESTART FILE WRITTEN EVERY  4320.000 SECONDS
 *  DDMIN=   - MINIMUM TRUST RADIUS  0.000 ANG/RAD
 *  GNORM=   - EXIT WHEN GRADIENT NORM DROPS BELOW .150    
 *  RELSCF   - DEFAULT SCF CRITERION MULTIPLIED BY   0.100    
 *             (DEFAULT SCFCRT= 0.00010)
 *  MULLIK   - THE MULLIKEN ANALYSIS TO BE PERFORMED
 *******************************************************************************
 PM6 T=31532273 DUMP=4320 XYZ EPS=78.40 RSOLV=1.30 MULLIK LBFGS MOZYME PDBOUT +
 CHARGE=-1 RELSCF=0.1 LET DDMIN=0.0 GNORM=0.15 1SCF
 SJ000001113-1_T001S001I001C01_003: Geometry optimization step

   ATOM   CHEMICAL          X               Y              Z
  NUMBER   SYMBOL      (ANGSTROMS)     (ANGSTROMS)    (ANGSTROMS)
 
     1       C         -7.7080000  *  -24.694000  *   20.652000  *
     2       C         -7.0400000  *  -23.454000  *   20.594000  *
     3       C         -5.7370000  *  -23.305000  *   21.096000  *
     4       C         -5.1210000  *  -22.094000  *   21.023000  *
     5       C         -5.7650000  *  -20.995000  *   20.457000  *
     6       C         -7.0270000  *  -21.102000  *   19.960000  *
     7       C         -7.6950000  *  -22.338000  *   20.017000  *
     8       C         -8.9980000  *  -22.483000  *   19.513000  *
     9       C         -9.6230000  *  -23.691000  *   19.580000  *
    10       C         -8.9880000  *  -24.799000  *   20.140000  *
    11       H         -5.2270000  *  -24.148000  *   21.539000  *
    12       H         -4.1190000  *  -21.982000  *   21.411000  *
    13       H         -5.2540000  *  -20.044000  *   20.411000  *
    14       H         -7.5140000  *  -20.242000  *   19.524000  *
    15       H        -10.6250000  *  -23.794000  *   19.189000  *
    16       S         -9.8240000  *  -21.103000  *   18.792000  *
    17       O         -9.1010000  *  -20.771000  *   17.574000  *
    18       O        -11.1880000  *  -21.526000  *   18.520000  *
    19       O         -9.7710000  *  -20.026000  *   19.770000  *
    20       O         -9.6390000  *  -25.993000  *   20.193000  *
    21       H         -9.5660000  *  -26.516000  *   19.382000  *
    22       N         -7.0810000  *  -25.807000  *   21.217000  *
    23       H         -7.5580000  *  -26.361000  *   21.855000  *
    24       H         -6.1700000  *  -26.029000  *   20.969000  *
 


          CARTESIAN COORDINATES 

    NO.       ATOM         X         Y         Z

     1         C       -7.7080  -24.6940   20.6520
     2         C       -7.0400  -23.4540   20.5940
     3         C       -5.7370  -23.3050   21.0960
     4         C       -5.1210  -22.0940   21.0230
     5         C       -5.7650  -20.9950   20.4570
     6         C       -7.0270  -21.1020   19.9600
     7         C       -7.6950  -22.3380   20.0170
     8         C       -8.9980  -22.4830   19.5130
     9         C       -9.6230  -23.6910   19.5800
    10         C       -8.9880  -24.7990   20.1400
    11         H       -5.2270  -24.1480   21.5390
    12         H       -4.1190  -21.9820   21.4110
    13         H       -5.2540  -20.0440   20.4110
    14         H       -7.5140  -20.2420   19.5240
    15         H      -10.6250  -23.7940   19.1890
    16         S       -9.8240  -21.1030   18.7920
    17         O       -9.1010  -20.7710   17.5740
    18         O      -11.1880  -21.5260   18.5200
    19         O       -9.7710  -20.0260   19.7700
    20         O       -9.6390  -25.9930   20.1930
    21         H       -9.5660  -26.5160   19.3820
    22         N       -7.0810  -25.8070   21.2170
    23         H       -7.5580  -26.3610   21.8550
    24         H       -6.1700  -26.0290   20.9690

 General Reference for PM6:
 "Optimization of Parameters for Semiempirical Methods V: Modification of NDDO Approximations
 and Application to 70 Elements", J. J. P. Stewart, J. Mol. Mod., 13, 1173-1213 (2007)
 URL: http://www.springerlink.com/content/ar33482301010477/fulltext.pdf

           Empirical Formula: C10 H8 N O4 S  =    24 atoms



      MOLECULAR POINT GROUP   :   C1  
 
   NUMBER AND TYPES OF BONDS IDENTIFIED
 
         SIGMA BONDS               25
         LONE PAIRS                 9
         NORMAL PI BONDS            1
         AROMATIC RING PI BONDS     4
         ANIONS                     3
         SUM OF OTHER CHARGES       2
 
 UNKNOWN RESIDUE:    1 ATOM:    0    C:10 N: 1 O: 4 S: 1 SEE KEYWORD 'XENO'
  AMINO ACID = UNK

                  Ramachandran Angles
              Residue    phi    psi  omega

  

 COMPUTED CHARGE ON SYSTEM:  -1
  SCF CRITERION =    0.1000E-02

 -------------------------------------------------------------------------------
 PM6 T=31532273 DUMP=4320 XYZ EPS=78.40 RSOLV=1.30 MULLIK LBFGS MOZYME PDBOUT +
 CHARGE=-1 RELSCF=0.1 LET DDMIN=0.0 GNORM=0.15 1SCF
 SJ000001113-1_T001S001I001C01_003: Geometry optimization step



     1SCF WAS SPECIFIED, SO BFGS WAS NOT USED                 
     SCF FIELD WAS ACHIEVED                                   


                               PM6     CALCULATION
                                                       MOPAC2009 (Version: 9.015L)
                                                       Tue Sep  6 17:22:59 2011




          FINAL HEAT OF FORMATION =       -229.53483 KCAL =    -960.37374 KJ
          VAN DER WAALS AREA      =        223.41 SQUARE ANGSTROMS


          TOTAL ENERGY            =      -3010.05773 EV
          ELECTRONIC ENERGY       =     -16752.17177 EV
          CORE-CORE REPULSION     =      13742.11404 EV
          DIELECTRIC ENERGY       =         -3.90578 EV
          COSMO AREA              =        223.41 SQUARE ANGSTROMS
          COSMO VOLUME            =        235.74 CUBIC ANGSTROMS

          NO. OF FILLED LEVELS    =         42
          MOLECULAR WEIGHT        =        238.238

          MOLECULAR DIMENSIONS (Angstroms)

            Atom       Atom       Distance
            H    12    O    18     7.65092
            H    13    H    23     6.77068
            H    21    O    19     2.52537


          SCF CALCULATIONS        =          2
          COMPUTATION TIME        =          0.283 SECONDS




   ATOM           CHEMICAL             X               Y              Z
  NUMBER           SYMBOL         (ANGSTROMS)     (ANGSTROMS)    (ANGSTROMS)
 
     1       C(     1 UNK*  1)   -7.7080000  *  -24.694000  *   20.652000  *
     2       C(     2 UNK   1)   -7.0400000  *  -23.454000  *   20.594000  *
     3       C(     3 UNK   1)   -5.7370000  *  -23.305000  *   21.096000  *
     4       C(     4 UNK   1)   -5.1210000  *  -22.094000  *   21.023000  *
     5       C(     5 UNK   1)   -5.7650000  *  -20.995000  *   20.457000  *
     6       C(     6 UNK   1)   -7.0270000  *  -21.102000  *   19.960000  *
     7       C(     7 UNK   1)   -7.6950000  *  -22.338000  *   20.017000  *
     8       C(     8 UNK   1)   -8.9980000  *  -22.483000  *   19.513000  *
     9       C(     9 UNK   1)   -9.6230000  *  -23.691000  *   19.580000  *
    10       C(    10 UNK*  1)   -8.9880000  *  -24.799000  *   20.140000  *
    11       H(    11 UNK   1)   -5.2270000  *  -24.148000  *   21.539000  *
    12       H(    12 UNK   1)   -4.1190000  *  -21.982000  *   21.411000  *
    13       H(    13 UNK   1)   -5.2540000  *  -20.044000  *   20.411000  *
    14       H(    14 UNK   1)   -7.5140000  *  -20.242000  *   19.524000  *
    15       H(    15 UNK   1)  -10.6250000  *  -23.794000  *   19.189000  *
    16       S(    16 UNK   1)   -9.8240000  *  -21.103000  *   18.792000  *
    17       O(    17 UNK   1)   -9.1010000  *  -20.771000  *   17.574000  *
    18       O(    18 UNK   1)  -11.1880000  *  -21.526000  *   18.520000  *
    19       O(    19 UNK   1)   -9.7710000  *  -20.026000  *   19.770000  *
    20       O(    20 UNK*  1)   -9.6390000  *  -25.993000  *   20.193000  *
    21       H(    21 UNK*  1)   -9.5660000  *  -26.516000  *   19.382000  *
    22       N(    22 UNK*  1)   -7.0810000  *  -25.807000  *   21.217000  *
    23       H(    23 UNK*  1)   -7.5580000  *  -26.361000  *   21.855000  *
    24       H(    24 UNK*  1)   -6.1700000  *  -26.029000  *   20.969000  *

           Empirical Formula: C10 H8 N O4 S  =    24 atoms



              NET ATOMIC CHARGES AND DIPOLE CONTRIBUTIONS

  ATOM NO.   TYPE          CHARGE      No. of ELECS.   s-Pop       p-Pop       d-Pop       
    1          C           0.220239        3.7798     1.07416     2.70560
    2          C          -0.171085        4.1711     1.08292     3.08816
    3          C          -0.087401        4.0874     1.10019     2.98721
    4          C          -0.212838        4.2128     1.09888     3.11396
    5          C          -0.074560        4.0746     1.09960     2.97496
    6          C          -0.263105        4.2631     1.10769     3.15541
    7          C           0.193137        3.8069     1.06589     2.74098
    8          C          -0.621338        4.6213     1.15451     3.46683
    9          C          -0.004173        4.0042     1.10151     2.90266
   10          C           0.032015        3.9680     1.06080     2.90719
   11          H           0.162930        0.8371     0.83707
   12          H           0.166510        0.8335     0.83349
   13          H           0.157202        0.8428     0.84280
   14          H           0.183290        0.8167     0.81671
   15          H           0.170713        0.8293     0.82929
   16          S           2.614392        3.3856     1.13529     1.88290     0.36741
   17          O          -1.102147        7.1021     1.87425     5.22790
   18          O          -1.102248        7.1022     1.87351     5.22874
   19          O          -1.102756        7.1028     1.87461     5.22815
   20          O          -0.546505        6.5465     1.77611     4.77039
   21          H           0.363212        0.6368     0.63679
   22          N          -0.538158        5.5382     1.42511     4.11305
   23          H           0.281399        0.7186     0.71860
   24          H           0.281275        0.7187     0.71872

             NET CHARGE ON RESIDUES

     Residue        Charge

      UNK   1        -1.000 ANION
 
 DIPOLE           X         Y         Z       TOTAL
 POINT-CHG.    12.093   -12.021     6.566    18.272
 HYBRID         0.204    -1.152     0.109     1.175
 SUM           12.297   -13.173     6.676    19.217


          CARTESIAN COORDINATES 

    NO.       ATOM               X         Y         Z

     1         C                 -7.7080  -24.6940   20.6520
     2         C                 -7.0400  -23.4540   20.5940
     3         C                 -5.7370  -23.3050   21.0960
     4         C                 -5.1210  -22.0940   21.0230
     5         C                 -5.7650  -20.9950   20.4570
     6         C                 -7.0270  -21.1020   19.9600
     7         C                 -7.6950  -22.3380   20.0170
     8         C                 -8.9980  -22.4830   19.5130
     9         C                 -9.6230  -23.6910   19.5800
    10         C                 -8.9880  -24.7990   20.1400
    11         H                 -5.2270  -24.1480   21.5390
    12         H                 -4.1190  -21.9820   21.4110
    13         H                 -5.2540  -20.0440   20.4110
    14         H                 -7.5140  -20.2420   19.5240
    15         H                -10.6250  -23.7940   19.1890
    16         S                 -9.8240  -21.1030   18.7920
    17         O                 -9.1010  -20.7710   17.5740
    18         O                -11.1880  -21.5260   18.5200
    19         O                 -9.7710  -20.0260   19.7700
    20         O                 -9.6390  -25.9930   20.1930
    21         H                 -9.5660  -26.5160   19.3820
    22         N                 -7.0810  -25.8070   21.2170
    23         H                 -7.5580  -26.3610   21.8550
    24         H                 -6.1700  -26.0290   20.9690


          ATOMIC ORBITAL ELECTRON POPULATIONS

   1.07416   0.93019   0.87934   0.89608   1.08292   1.01647   0.98023   1.09146
   1.10019   0.97524   1.03907   0.97290   1.09888   1.08158   0.98948   1.04290
   1.09960   0.98677   1.04677   0.94142   1.10769   1.02791   1.05935   1.06815
   1.06589   0.90896   0.93633   0.89569   1.15451   1.10004   1.14934   1.21744
   1.10151   1.04721   0.94242   0.91303   1.06080   0.96808   0.83555   1.10356
   0.83707   0.83349   0.84280   0.81671   0.82929   1.13529   0.62215   0.63774
   0.62302   0.06641   0.08021   0.07238   0.08075   0.06767   1.87425   1.77475
   1.86465   1.58849   1.87351   1.51307   1.84661   1.86906   1.87461   1.88139
   1.65929   1.68747   1.77611   1.79588   1.40737   1.56714   0.63679   1.42511
   1.25048   1.33736   1.52521   0.71860   0.71872

           MULLIKEN POPULATION ANALYSIS



        MULLIKEN POPULATIONS AND CHARGES

      NO.  ATOM   POPULATION      CHARGE
        1    C     3.743432      0.256568
        2    C     4.191318     -0.191318
        3    C     4.128264     -0.128264
        4    C     4.270471     -0.270471
        5    C     4.119792     -0.119792
        6    C     4.326680     -0.326680
        7    C     3.777686      0.222314
        8    C     4.710345     -0.710345
        9    C     4.032867     -0.032867
       10    C     3.965695      0.034305
       11    H     0.785055      0.214945
       12    H     0.779600      0.220400
       13    H     0.791351      0.208649
       14    H     0.759267      0.240733
       15    H     0.774498      0.225502
       16    S     3.178284      2.821716
       17    O     7.153239     -1.153239
       18    O     7.153722     -1.153722
       19    O     7.153788     -1.153788
       20    O     6.593846     -0.593846
       21    H     0.602749      0.397251
       22    N     5.724145     -0.724145
       23    H     0.641826      0.358174
       24    H     0.642079      0.357921



 TOTAL CPU TIME:             0.29 SECONDS

 == MOPAC DONE ==
 *******************************************************************************
 ** Site#:  958            For non-commercial use only         Version 9.015L **
 *******************************************************************************
 ** Cite this work as: MOPAC2009, James J. P. Stewart, Stewart Computational  **
 ** Chemistry, Version 9.015L web: HTTP://OpenMOPAC.net                       **
 *******************************************************************************
 **                                                                           **
 **                                MOPAC2009                                  **
 **                                                                           **
 *******************************************************************************

                            PM6 CALCULATION RESULTS


 *******************************************************************************
 *  CALCULATION DONE:                                Tue Sep  6 17:22:59 2011  *
 *  PM6      - The PM6 Hamiltonian to be used
 *  GEO-OK   - OVERRIDE INTERATOMIC DISTANCE CHECK
 *  MOZYME   - USE LOCALIZED M.O.s IN SOLVING THE SCF EQUATIONS
 *
 *
 *
 *                 CHARGE ON SYSTEM =    -1
 *
 *
 *
 *  EPS= 78.400
 *  RSOLV=  1.300
 *  OLDGEO   - PREVIOUS GEOMETRY TO BE USED
 *  T=       - A TIME OF 172800.0 SECONDS REQUESTED
 *  DUMP=N   - RESTART FILE WRITTEN EVERY  4320.000 SECONDS
 *  RELSCF   - DEFAULT SCF CRITERION MULTIPLIED BY   0.100    
 *             (DEFAULT SCFCRT= 0.00010)
 *  THERMO   - THERMODYNAMIC QUANTITIES TO BE CALCULATED
 *******************************************************************************
 PM6 DUMP=4320 MOZYME RELSCF=0.1 THERMO EPS=78.40 RSOLV=1.30 +
 OLDGEO GEO-OK CHARGE=-1
 SJ000001113-1_T001S001I001C01_003: Free energy calculation

   ATOM           CHEMICAL             X               Y              Z
  NUMBER           SYMBOL         (ANGSTROMS)     (ANGSTROMS)    (ANGSTROMS)
 
     1       C(     1 UNK*  1)   -7.7080000  *  -24.694000  *   20.652000  *
     2       C(     2 UNK   1)   -7.0400000  *  -23.454000  *   20.594000  *
     3       C(     3 UNK   1)   -5.7370000  *  -23.305000  *   21.096000  *
     4       C(     4 UNK   1)   -5.1210000  *  -22.094000  *   21.023000  *
     5       C(     5 UNK   1)   -5.7650000  *  -20.995000  *   20.457000  *
     6       C(     6 UNK   1)   -7.0270000  *  -21.102000  *   19.960000  *
     7       C(     7 UNK   1)   -7.6950000  *  -22.338000  *   20.017000  *
     8       C(     8 UNK   1)   -8.9980000  *  -22.483000  *   19.513000  *
     9       C(     9 UNK   1)   -9.6230000  *  -23.691000  *   19.580000  *
    10       C(    10 UNK*  1)   -8.9880000  *  -24.799000  *   20.140000  *
    11       H(    11 UNK   1)   -5.2270000  *  -24.148000  *   21.539000  *
    12       H(    12 UNK   1)   -4.1190000  *  -21.982000  *   21.411000  *
    13       H(    13 UNK   1)   -5.2540000  *  -20.044000  *   20.411000  *
    14       H(    14 UNK   1)   -7.5140000  *  -20.242000  *   19.524000  *
    15       H(    15 UNK   1)  -10.6250000  *  -23.794000  *   19.189000  *
    16       S(    16 UNK   1)   -9.8240000  *  -21.103000  *   18.792000  *
    17       O(    17 UNK   1)   -9.1010000  *  -20.771000  *   17.574000  *
    18       O(    18 UNK   1)  -11.1880000  *  -21.526000  *   18.520000  *
    19       O(    19 UNK   1)   -9.7710000  *  -20.026000  *   19.770000  *
    20       O(    20 UNK*  1)   -9.6390000  *  -25.993000  *   20.193000  *
    21       H(    21 UNK*  1)   -9.5660000  *  -26.516000  *   19.382000  *
    22       N(    22 UNK*  1)   -7.0810000  *  -25.807000  *   21.217000  *
    23       H(    23 UNK*  1)   -7.5580000  *  -26.361000  *   21.855000  *
    24       H(    24 UNK*  1)   -6.1700000  *  -26.029000  *   20.969000  *
 


          CARTESIAN COORDINATES 

    NO.       ATOM         X         Y         Z

     1         C       -7.7080  -24.6940   20.6520
     2         C       -7.0400  -23.4540   20.5940
     3         C       -5.7370  -23.3050   21.0960
     4         C       -5.1210  -22.0940   21.0230
     5         C       -5.7650  -20.9950   20.4570
     6         C       -7.0270  -21.1020   19.9600
     7         C       -7.6950  -22.3380   20.0170
     8         C       -8.9980  -22.4830   19.5130
     9         C       -9.6230  -23.6910   19.5800
    10         C       -8.9880  -24.7990   20.1400
    11         H       -5.2270  -24.1480   21.5390
    12         H       -4.1190  -21.9820   21.4110
    13         H       -5.2540  -20.0440   20.4110
    14         H       -7.5140  -20.2420   19.5240
    15         H      -10.6250  -23.7940   19.1890
    16         S       -9.8240  -21.1030   18.7920
    17         O       -9.1010  -20.7710   17.5740
    18         O      -11.1880  -21.5260   18.5200
    19         O       -9.7710  -20.0260   19.7700
    20         O       -9.6390  -25.9930   20.1930
    21         H       -9.5660  -26.5160   19.3820
    22         N       -7.0810  -25.8070   21.2170
    23         H       -7.5580  -26.3610   21.8550
    24         H       -6.1700  -26.0290   20.9690

 General Reference for PM6:
 "Optimization of Parameters for Semiempirical Methods V: Modification of NDDO Approximations
 and Application to 70 Elements", J. J. P. Stewart, J. Mol. Mod., 13, 1173-1213 (2007)
 URL: http://www.springerlink.com/content/ar33482301010477/fulltext.pdf

           Empirical Formula: C10 H8 N O4 S  =    24 atoms



      MOLECULAR POINT GROUP   :   C1  
 
   NUMBER AND TYPES OF BONDS IDENTIFIED
 
         SIGMA BONDS               25
         LONE PAIRS                 9
         NORMAL PI BONDS            1
         AROMATIC RING PI BONDS     4
         ANIONS                     3
         SUM OF OTHER CHARGES       2
 

 COMPUTED CHARGE ON SYSTEM:  -1
  SCF CRITERION =    0.1000E-02


          HEAT OF FORMATION =    -229.535865 KCALS/MOLE


          INTERNAL COORDINATE DERIVATIVES

   NUMBER  ATOM       BOND         ANGLE      DIHEDRAL

     1       C
     2       C     23.500714
     3       C    -24.085483    -0.345447
     4       C    -12.214879     8.438552    -3.520485
     5       C      0.484138   -15.628223    -0.098877
     6       C     -6.730748   -27.669569     0.313551
     7       C    -24.888049     8.660581    -0.263705
     8       C    -12.310941     6.740008    -0.608743
     9       C      5.577181     1.460977    -0.545767
    10       C     -7.926136    21.585955     0.973974
    11       H      3.476573    24.438986     1.569382
    12       H     -0.695085     4.535092    -4.700969
    13       H      4.033220    -8.401625     0.242717
    14       H     -6.497983    -7.582608     0.010310
    15       H    -10.441649    -1.742114     0.028062
    16       S     -7.367509     6.411710     0.137856
    17       O     10.239414     9.097363    -0.632223
    18       O     28.924974   -49.992427     0.341756
    19       O    -23.058867     7.368256   -40.987288
    20       O     30.959395    38.054143     5.342584
    21       H    -30.690049     5.095725    36.035248
    22       N     26.096020     0.696742    20.479472
    23       H      1.105704     0.557591   -13.255702
    24       H     -7.490995    15.253853     1.041056


          GRADIENT NORM = 135.16123



 ** GRADIENT IS TOO LARGE TO ALLOW FORCE MATRIX TO BE CALCULATED, (LIMIT=10) **



 EITHER ADD 'LET' OR REDUCE GRADIENT
 USING 'TS' OR OTHER GEOMETRY OPTIMIZER



 TOTAL CPU TIME:             0.59 SECONDS

 == MOPAC DONE ==
