 *******************************************************************************
 ** Site#:  958            For non-commercial use only         Version 9.015L **
 *******************************************************************************
 ** Cite this work as: MOPAC2009, James J. P. Stewart, Stewart Computational  **
 ** Chemistry, Version 9.015L web: HTTP://OpenMOPAC.net                       **
 *******************************************************************************
 **                                                                           **
 **                                MOPAC2009                                  **
 **                                                                           **
 *******************************************************************************

                            PM6 CALCULATION RESULTS


 *******************************************************************************
 *  CALCULATION DONE:                                Tue Sep  6 17:23:15 2011  *
 *  PM6      - The PM6 Hamiltonian to be used
 *  PDBOUT   - PRINT GEOMETY IN PDB FORMAT
 *  MOZYME   - USE LOCALIZED M.O.s IN SOLVING THE SCF EQUATIONS
 *
 *
 *
 *                 CHARGE ON SYSTEM =    -1
 *
 *
 *
 *  EPS= 78.400
 *  RSOLV=  1.300
 *  LET      - OVERRIDE SOME SAFETY CHECKS
 *  XYZ      - CARTESIAN COORDINATE SYSTEM TO BE USED
 *  LBFGS    - USE THE LBFGS GEOMETRY OPTIMIZER
 *  1SCF     - DO 1 SCF AND THEN STOP 
 *  T=       - A TIME OF  0.3E+08 SECONDS REQUESTED
 *  DUMP=N   - RESTART FILE WRITTEN EVERY  4320.000 SECONDS
 *  DDMIN=   - MINIMUM TRUST RADIUS  0.000 ANG/RAD
 *  GNORM=   - EXIT WHEN GRADIENT NORM DROPS BELOW .150    
 *  RELSCF   - DEFAULT SCF CRITERION MULTIPLIED BY   0.100    
 *             (DEFAULT SCFCRT= 0.00010)
 *  MULLIK   - THE MULLIKEN ANALYSIS TO BE PERFORMED
 *******************************************************************************
 PM6 T=31532257 DUMP=4320 XYZ EPS=78.40 RSOLV=1.30 MULLIK LBFGS MOZYME PDBOUT +
 CHARGE=-1 RELSCF=0.1 LET DDMIN=0.0 GNORM=0.15 1SCF
 SJ000001113-1_T001S001I001C01_005: Geometry optimization step

   ATOM   CHEMICAL          X               Y              Z
  NUMBER   SYMBOL      (ANGSTROMS)     (ANGSTROMS)    (ANGSTROMS)
 
     1       C          6.9530000  *  -26.461000  *   12.001000  *
     2       C          5.9840000  *  -25.953000  *   11.112000  *
     3       C          5.5790000  *  -24.610000  *   11.168000  *
     4       C          4.6410000  *  -24.152000  *   10.294000  *
     5       C          4.0750000  *  -24.999000  *    9.342000  *
     6       C          4.4430000  *  -26.306000  *    9.258000  *
     7       C          5.4100000  *  -26.814000  *   10.144000  *
     8       C          5.8130000  *  -28.158000  *   10.085000  *
     9       C          6.7520000  *  -28.626000  *   10.954000  *
    10       C          7.3300000  *  -27.789000  *   11.908000  *
    11       H          6.0080000  *  -23.943000  *   11.901000  *
    12       H          4.3300000  *  -23.119000  *   10.339000  *
    13       H          3.3330000  *  -24.611000  *    8.659000  *
    14       H          3.9960000  *  -26.950000  *    8.516000  *
    15       H          7.0570000  *  -29.661000  *   10.901000  *
    16       S          5.1080000  *  -29.239000  *    8.885000  *
    17       O          5.6280000  *  -30.568000  *    9.161000  *
    18       O          3.6650000  *  -29.169000  *    9.055000  *
    19       O          5.5280000  *  -28.748000  *    7.581000  *
    20       O          8.2650000  *  -28.285000  *   12.763000  *
    21       H          9.0720000  *  -27.754000  *   12.813000  *
    22       N          7.5320000  *  -25.630000  *   12.963000  *
    23       H          8.0480000  *  -26.015000  *   13.689000  *
    24       H          7.4210000  *  -24.668000  *   12.904000  *
 


          CARTESIAN COORDINATES 

    NO.       ATOM         X         Y         Z

     1         C        6.9530  -26.4610   12.0010
     2         C        5.9840  -25.9530   11.1120
     3         C        5.5790  -24.6100   11.1680
     4         C        4.6410  -24.1520   10.2940
     5         C        4.0750  -24.9990    9.3420
     6         C        4.4430  -26.3060    9.2580
     7         C        5.4100  -26.8140   10.1440
     8         C        5.8130  -28.1580   10.0850
     9         C        6.7520  -28.6260   10.9540
    10         C        7.3300  -27.7890   11.9080
    11         H        6.0080  -23.9430   11.9010
    12         H        4.3300  -23.1190   10.3390
    13         H        3.3330  -24.6110    8.6590
    14         H        3.9960  -26.9500    8.5160
    15         H        7.0570  -29.6610   10.9010
    16         S        5.1080  -29.2390    8.8850
    17         O        5.6280  -30.5680    9.1610
    18         O        3.6650  -29.1690    9.0550
    19         O        5.5280  -28.7480    7.5810
    20         O        8.2650  -28.2850   12.7630
    21         H        9.0720  -27.7540   12.8130
    22         N        7.5320  -25.6300   12.9630
    23         H        8.0480  -26.0150   13.6890
    24         H        7.4210  -24.6680   12.9040

 General Reference for PM6:
 "Optimization of Parameters for Semiempirical Methods V: Modification of NDDO Approximations
 and Application to 70 Elements", J. J. P. Stewart, J. Mol. Mod., 13, 1173-1213 (2007)
 URL: http://www.springerlink.com/content/ar33482301010477/fulltext.pdf

           Empirical Formula: C10 H8 N O4 S  =    24 atoms



      MOLECULAR POINT GROUP   :   C1  
 
   NUMBER AND TYPES OF BONDS IDENTIFIED
 
         SIGMA BONDS               25
         LONE PAIRS                 9
         NORMAL PI BONDS            1
         AROMATIC RING PI BONDS     4
         ANIONS                     3
         SUM OF OTHER CHARGES       2
 
 UNKNOWN RESIDUE:    1 ATOM:    0    C:10 N: 1 O: 4 S: 1 SEE KEYWORD 'XENO'
  AMINO ACID = UNK

                  Ramachandran Angles
              Residue    phi    psi  omega

  

 COMPUTED CHARGE ON SYSTEM:  -1
  SCF CRITERION =    0.1000E-02

 -------------------------------------------------------------------------------
 PM6 T=31532257 DUMP=4320 XYZ EPS=78.40 RSOLV=1.30 MULLIK LBFGS MOZYME PDBOUT +
 CHARGE=-1 RELSCF=0.1 LET DDMIN=0.0 GNORM=0.15 1SCF
 SJ000001113-1_T001S001I001C01_005: Geometry optimization step



     1SCF WAS SPECIFIED, SO BFGS WAS NOT USED                 
     SCF FIELD WAS ACHIEVED                                   


                               PM6     CALCULATION
                                                       MOPAC2009 (Version: 9.015L)
                                                       Tue Sep  6 17:23:15 2011




          FINAL HEAT OF FORMATION =       -235.07765 KCAL =    -983.56488 KJ
          VAN DER WAALS AREA      =        222.08 SQUARE ANGSTROMS


          TOTAL ENERGY            =      -3011.42018 EV
          ELECTRONIC ENERGY       =     -16761.50205 EV
          CORE-CORE REPULSION     =      13750.08187 EV
          DIELECTRIC ENERGY       =         -4.12295 EV
          COSMO AREA              =        222.08 SQUARE ANGSTROMS
          COSMO VOLUME            =        237.68 CUBIC ANGSTROMS

          NO. OF FILLED LEVELS    =         42
          MOLECULAR WEIGHT        =        238.238

          MOLECULAR DIMENSIONS (Angstroms)

            Atom       Atom       Distance
            H    12    O    17     7.65246
            H    13    H    21     6.96814
            O    19    O    18     2.37533


          SCF CALCULATIONS        =          2
          COMPUTATION TIME        =          0.224 SECONDS




   ATOM           CHEMICAL             X               Y              Z
  NUMBER           SYMBOL         (ANGSTROMS)     (ANGSTROMS)    (ANGSTROMS)
 
     1       C(     1 UNK*  1)    6.9530000  *  -26.461000  *   12.001000  *
     2       C(     2 UNK   1)    5.9840000  *  -25.953000  *   11.112000  *
     3       C(     3 UNK   1)    5.5790000  *  -24.610000  *   11.168000  *
     4       C(     4 UNK   1)    4.6410000  *  -24.152000  *   10.294000  *
     5       C(     5 UNK   1)    4.0750000  *  -24.999000  *    9.342000  *
     6       C(     6 UNK   1)    4.4430000  *  -26.306000  *    9.258000  *
     7       C(     7 UNK   1)    5.4100000  *  -26.814000  *   10.144000  *
     8       C(     8 UNK   1)    5.8130000  *  -28.158000  *   10.085000  *
     9       C(     9 UNK   1)    6.7520000  *  -28.626000  *   10.954000  *
    10       C(    10 UNK*  1)    7.3300000  *  -27.789000  *   11.908000  *
    11       H(    11 UNK   1)    6.0080000  *  -23.943000  *   11.901000  *
    12       H(    12 UNK   1)    4.3300000  *  -23.119000  *   10.339000  *
    13       H(    13 UNK   1)    3.3330000  *  -24.611000  *    8.659000  *
    14       H(    14 UNK   1)    3.9960000  *  -26.950000  *    8.516000  *
    15       H(    15 UNK   1)    7.0570000  *  -29.661000  *   10.901000  *
    16       S(    16 UNK   1)    5.1080000  *  -29.239000  *    8.885000  *
    17       O(    17 UNK   1)    5.6280000  *  -30.568000  *    9.161000  *
    18       O(    18 UNK   1)    3.6650000  *  -29.169000  *    9.055000  *
    19       O(    19 UNK   1)    5.5280000  *  -28.748000  *    7.581000  *
    20       O(    20 UNK*  1)    8.2650000  *  -28.285000  *   12.763000  *
    21       H(    21 UNK*  1)    9.0720000  *  -27.754000  *   12.813000  *
    22       N(    22 UNK*  1)    7.5320000  *  -25.630000  *   12.963000  *
    23       H(    23 UNK*  1)    8.0480000  *  -26.015000  *   13.689000  *
    24       H(    24 UNK*  1)    7.4210000  *  -24.668000  *   12.904000  *

           Empirical Formula: C10 H8 N O4 S  =    24 atoms



              NET ATOMIC CHARGES AND DIPOLE CONTRIBUTIONS

  ATOM NO.   TYPE          CHARGE      No. of ELECS.   s-Pop       p-Pop       d-Pop       
    1          C           0.205294        3.7947     1.07712     2.71759
    2          C          -0.190662        4.1907     1.07744     3.11322
    3          C          -0.083087        4.0831     1.09896     2.98413
    4          C          -0.219504        4.2195     1.09814     3.12136
    5          C          -0.066855        4.0669     1.09958     2.96727
    6          C          -0.273474        4.2735     1.10766     3.16582
    7          C           0.219150        3.7808     1.06453     2.71632
    8          C          -0.661679        4.6617     1.15168     3.51000
    9          C           0.037221        3.9628     1.09509     2.86769
   10          C          -0.013811        4.0138     1.05551     2.95830
   11          H           0.158338        0.8417     0.84166
   12          H           0.166859        0.8331     0.83314
   13          H           0.156457        0.8435     0.84354
   14          H           0.183474        0.8165     0.81653
   15          H           0.167367        0.8326     0.83263
   16          S           2.620097        3.3799     1.13357     1.88019     0.36615
   17          O          -1.104575        7.1046     1.87330     5.23127
   18          O          -1.103788        7.1038     1.87403     5.22976
   19          O          -1.105595        7.1056     1.87429     5.23130
   20          O          -0.534674        6.5347     1.77803     4.75665
   21          H           0.357932        0.6421     0.64207
   22          N          -0.473254        5.4733     1.42526     4.04799
   23          H           0.279092        0.7209     0.72091
   24          H           0.279678        0.7203     0.72032

             NET CHARGE ON RESIDUES

     Residue        Charge

      UNK   1        -1.000 ANION
 
 DIPOLE           X         Y         Z       TOTAL
 POINT-CHG.     6.111    15.497    10.909    19.912
 HYBRID         0.911     0.631     0.913     1.436
 SUM            7.022    16.128    11.822    21.194


          CARTESIAN COORDINATES 

    NO.       ATOM               X         Y         Z

     1         C                  6.9530  -26.4610   12.0010
     2         C                  5.9840  -25.9530   11.1120
     3         C                  5.5790  -24.6100   11.1680
     4         C                  4.6410  -24.1520   10.2940
     5         C                  4.0750  -24.9990    9.3420
     6         C                  4.4430  -26.3060    9.2580
     7         C                  5.4100  -26.8140   10.1440
     8         C                  5.8130  -28.1580   10.0850
     9         C                  6.7520  -28.6260   10.9540
    10         C                  7.3300  -27.7890   11.9080
    11         H                  6.0080  -23.9430   11.9010
    12         H                  4.3300  -23.1190   10.3390
    13         H                  3.3330  -24.6110    8.6590
    14         H                  3.9960  -26.9500    8.5160
    15         H                  7.0570  -29.6610   10.9010
    16         S                  5.1080  -29.2390    8.8850
    17         O                  5.6280  -30.5680    9.1610
    18         O                  3.6650  -29.1690    9.0550
    19         O                  5.5280  -28.7480    7.5810
    20         O                  8.2650  -28.2850   12.7630
    21         H                  9.0720  -27.7540   12.8130
    22         N                  7.5320  -25.6300   12.9630
    23         H                  8.0480  -26.0150   13.6890
    24         H                  7.4210  -24.6680   12.9040


          ATOMIC ORBITAL ELECTRON POPULATIONS

   1.07712   0.90483   0.92873   0.88403   1.07744   1.05190   1.00760   1.05372
   1.09896   0.98123   0.98930   1.01359   1.09814   1.02683   1.08367   1.01086
   1.09958   0.99740   0.97780   0.99207   1.10766   1.04911   1.04105   1.07566
   1.06453   0.90362   0.90497   0.90773   1.15168   1.18588   1.11690   1.20721
   1.09509   0.91948   1.05552   0.89269   1.05551   0.99816   0.96079   0.99935
   0.84166   0.83314   0.84354   0.81653   0.83263   1.13357   0.62114   0.62683
   0.63221   0.08321   0.06686   0.07024   0.07449   0.07135   1.87330   1.82720
   1.53573   1.86834   1.87403   1.46988   1.88191   1.87797   1.87429   1.84649
   1.83347   1.55135   1.77803   1.40323   1.66226   1.69116   0.64207   1.42526
   1.56971   1.16173   1.31656   0.72091   0.72032

           MULLIKEN POPULATION ANALYSIS



        MULLIKEN POPULATIONS AND CHARGES

      NO.  ATOM   POPULATION      CHARGE
        1    C     3.762860      0.237140
        2    C     4.210772     -0.210772
        3    C     4.122832     -0.122832
        4    C     4.276613     -0.276613
        5    C     4.111388     -0.111388
        6    C     4.338497     -0.338497
        7    C     3.747761      0.252239
        8    C     4.752414     -0.752414
        9    C     3.984369      0.015631
       10    C     4.013020     -0.013020
       11    H     0.792138      0.207862
       12    H     0.779110      0.220890
       13    H     0.792294      0.207706
       14    H     0.758944      0.241056
       15    H     0.778864      0.221136
       16    S     3.171614      2.828386
       17    O     7.156278     -1.156278
       18    O     7.155121     -1.155121
       19    O     7.156796     -1.156796
       20    O     6.581756     -0.581756
       21    H     0.608569      0.391431
       22    N     5.660324     -0.660324
       23    H     0.644208      0.355792
       24    H     0.643459      0.356541



 TOTAL CPU TIME:             0.23 SECONDS

 == MOPAC DONE ==
 *******************************************************************************
 ** Site#:  958            For non-commercial use only         Version 9.015L **
 *******************************************************************************
 ** Cite this work as: MOPAC2009, James J. P. Stewart, Stewart Computational  **
 ** Chemistry, Version 9.015L web: HTTP://OpenMOPAC.net                       **
 *******************************************************************************
 **                                                                           **
 **                                MOPAC2009                                  **
 **                                                                           **
 *******************************************************************************

                            PM6 CALCULATION RESULTS


 *******************************************************************************
 *  CALCULATION DONE:                                Tue Sep  6 17:23:15 2011  *
 *  PM6      - The PM6 Hamiltonian to be used
 *  GEO-OK   - OVERRIDE INTERATOMIC DISTANCE CHECK
 *  MOZYME   - USE LOCALIZED M.O.s IN SOLVING THE SCF EQUATIONS
 *
 *
 *
 *                 CHARGE ON SYSTEM =    -1
 *
 *
 *
 *  EPS= 78.400
 *  RSOLV=  1.300
 *  OLDGEO   - PREVIOUS GEOMETRY TO BE USED
 *  T=       - A TIME OF 172800.0 SECONDS REQUESTED
 *  DUMP=N   - RESTART FILE WRITTEN EVERY  4320.000 SECONDS
 *  RELSCF   - DEFAULT SCF CRITERION MULTIPLIED BY   0.100    
 *             (DEFAULT SCFCRT= 0.00010)
 *  THERMO   - THERMODYNAMIC QUANTITIES TO BE CALCULATED
 *******************************************************************************
 PM6 DUMP=4320 MOZYME RELSCF=0.1 THERMO EPS=78.40 RSOLV=1.30 +
 OLDGEO GEO-OK CHARGE=-1
 SJ000001113-1_T001S001I001C01_005: Free energy calculation

   ATOM           CHEMICAL             X               Y              Z
  NUMBER           SYMBOL         (ANGSTROMS)     (ANGSTROMS)    (ANGSTROMS)
 
     1       C(     1 UNK*  1)    6.9530000  *  -26.461000  *   12.001000  *
     2       C(     2 UNK   1)    5.9840000  *  -25.953000  *   11.112000  *
     3       C(     3 UNK   1)    5.5790000  *  -24.610000  *   11.168000  *
     4       C(     4 UNK   1)    4.6410000  *  -24.152000  *   10.294000  *
     5       C(     5 UNK   1)    4.0750000  *  -24.999000  *    9.342000  *
     6       C(     6 UNK   1)    4.4430000  *  -26.306000  *    9.258000  *
     7       C(     7 UNK   1)    5.4100000  *  -26.814000  *   10.144000  *
     8       C(     8 UNK   1)    5.8130000  *  -28.158000  *   10.085000  *
     9       C(     9 UNK   1)    6.7520000  *  -28.626000  *   10.954000  *
    10       C(    10 UNK*  1)    7.3300000  *  -27.789000  *   11.908000  *
    11       H(    11 UNK   1)    6.0080000  *  -23.943000  *   11.901000  *
    12       H(    12 UNK   1)    4.3300000  *  -23.119000  *   10.339000  *
    13       H(    13 UNK   1)    3.3330000  *  -24.611000  *    8.659000  *
    14       H(    14 UNK   1)    3.9960000  *  -26.950000  *    8.516000  *
    15       H(    15 UNK   1)    7.0570000  *  -29.661000  *   10.901000  *
    16       S(    16 UNK   1)    5.1080000  *  -29.239000  *    8.885000  *
    17       O(    17 UNK   1)    5.6280000  *  -30.568000  *    9.161000  *
    18       O(    18 UNK   1)    3.6650000  *  -29.169000  *    9.055000  *
    19       O(    19 UNK   1)    5.5280000  *  -28.748000  *    7.581000  *
    20       O(    20 UNK*  1)    8.2650000  *  -28.285000  *   12.763000  *
    21       H(    21 UNK*  1)    9.0720000  *  -27.754000  *   12.813000  *
    22       N(    22 UNK*  1)    7.5320000  *  -25.630000  *   12.963000  *
    23       H(    23 UNK*  1)    8.0480000  *  -26.015000  *   13.689000  *
    24       H(    24 UNK*  1)    7.4210000  *  -24.668000  *   12.904000  *
 


          CARTESIAN COORDINATES 

    NO.       ATOM         X         Y         Z

     1         C        6.9530  -26.4610   12.0010
     2         C        5.9840  -25.9530   11.1120
     3         C        5.5790  -24.6100   11.1680
     4         C        4.6410  -24.1520   10.2940
     5         C        4.0750  -24.9990    9.3420
     6         C        4.4430  -26.3060    9.2580
     7         C        5.4100  -26.8140   10.1440
     8         C        5.8130  -28.1580   10.0850
     9         C        6.7520  -28.6260   10.9540
    10         C        7.3300  -27.7890   11.9080
    11         H        6.0080  -23.9430   11.9010
    12         H        4.3300  -23.1190   10.3390
    13         H        3.3330  -24.6110    8.6590
    14         H        3.9960  -26.9500    8.5160
    15         H        7.0570  -29.6610   10.9010
    16         S        5.1080  -29.2390    8.8850
    17         O        5.6280  -30.5680    9.1610
    18         O        3.6650  -29.1690    9.0550
    19         O        5.5280  -28.7480    7.5810
    20         O        8.2650  -28.2850   12.7630
    21         H        9.0720  -27.7540   12.8130
    22         N        7.5320  -25.6300   12.9630
    23         H        8.0480  -26.0150   13.6890
    24         H        7.4210  -24.6680   12.9040

 General Reference for PM6:
 "Optimization of Parameters for Semiempirical Methods V: Modification of NDDO Approximations
 and Application to 70 Elements", J. J. P. Stewart, J. Mol. Mod., 13, 1173-1213 (2007)
 URL: http://www.springerlink.com/content/ar33482301010477/fulltext.pdf

           Empirical Formula: C10 H8 N O4 S  =    24 atoms



      MOLECULAR POINT GROUP   :   C1  
 
   NUMBER AND TYPES OF BONDS IDENTIFIED
 
         SIGMA BONDS               25
         LONE PAIRS                 9
         NORMAL PI BONDS            1
         AROMATIC RING PI BONDS     4
         ANIONS                     3
         SUM OF OTHER CHARGES       2
 

 COMPUTED CHARGE ON SYSTEM:  -1
  SCF CRITERION =    0.1000E-02


          HEAT OF FORMATION =    -235.077324 KCALS/MOLE


          INTERNAL COORDINATE DERIVATIVES

   NUMBER  ATOM       BOND         ANGLE      DIHEDRAL

     1       C
     2       C     24.918222
     3       C    -44.356362     1.198412
     4       C    -13.993722     7.274455    -1.547468
     5       C     -1.543754   -14.078557     0.179730
     6       C     -6.388005   -26.868798     0.199609
     7       C    -24.713850     7.604761    -0.175348
     8       C    -11.288035     6.237515    -0.660697
     9       C      5.958579     2.249376    -0.128018
    10       C    -10.467040    22.509009     1.288943
    11       H     11.856710    19.453848    -0.467556
    12       H     -0.388205     7.109940    -4.735453
    13       H      4.090959    -9.086600    -0.039826
    14       H     -6.519253    -7.771101    -0.027323
    15       H    -10.514958    -1.812077     0.055533
    16       S     -7.424336     6.757762     0.163457
    17       O     10.403494     8.917893    -0.283744
    18       O     30.790310   -53.516408    -0.465680
    19       O     31.524874    38.933522     4.499297
    20       O    -31.018993     5.745029    37.749073
    21       H    -24.380537     7.368605   -41.034566
    22       N     25.641418    18.619397    15.932815
    23       H      3.332686    -7.713494   -11.753386
    24       H    -16.295191    34.818427    -0.210880


          GRADIENT NORM = 147.80613



 ** GRADIENT IS TOO LARGE TO ALLOW FORCE MATRIX TO BE CALCULATED, (LIMIT=10) **



 EITHER ADD 'LET' OR REDUCE GRADIENT
 USING 'TS' OR OTHER GEOMETRY OPTIMIZER



 TOTAL CPU TIME:             0.51 SECONDS

 == MOPAC DONE ==
