 *******************************************************************************
 ** Site#:  958            For non-commercial use only         Version 9.015L **
 *******************************************************************************
 ** Cite this work as: MOPAC2009, James J. P. Stewart, Stewart Computational  **
 ** Chemistry, Version 9.015L web: HTTP://OpenMOPAC.net                       **
 *******************************************************************************
 **                                                                           **
 **                                MOPAC2009                                  **
 **                                                                           **
 *******************************************************************************

                            PM6 CALCULATION RESULTS


 *******************************************************************************
 *  CALCULATION DONE:                                Tue Sep  6 17:22:28 2011  *
 *  PM6      - The PM6 Hamiltonian to be used
 *  PDBOUT   - PRINT GEOMETY IN PDB FORMAT
 *  MOZYME   - USE LOCALIZED M.O.s IN SOLVING THE SCF EQUATIONS
 *
 *
 *
 *                 CHARGE ON SYSTEM =    -1
 *
 *
 *
 *  EPS= 78.400
 *  RSOLV=  1.300
 *  LET      - OVERRIDE SOME SAFETY CHECKS
 *  XYZ      - CARTESIAN COORDINATE SYSTEM TO BE USED
 *  LBFGS    - USE THE LBFGS GEOMETRY OPTIMIZER
 *  1SCF     - DO 1 SCF AND THEN STOP 
 *  T=       - A TIME OF  0.3E+08 SECONDS REQUESTED
 *  DUMP=N   - RESTART FILE WRITTEN EVERY  4320.000 SECONDS
 *  DDMIN=   - MINIMUM TRUST RADIUS  0.000 ANG/RAD
 *  GNORM=   - EXIT WHEN GRADIENT NORM DROPS BELOW .150    
 *  RELSCF   - DEFAULT SCF CRITERION MULTIPLIED BY   0.100    
 *             (DEFAULT SCFCRT= 0.00010)
 *  MULLIK   - THE MULLIKEN ANALYSIS TO BE PERFORMED
 *******************************************************************************
 PM6 T=31532304 DUMP=4320 XYZ EPS=78.40 RSOLV=1.30 MULLIK LBFGS MOZYME PDBOUT +
 CHARGE=-1 RELSCF=0.1 LET DDMIN=0.0 GNORM=0.15 1SCF
 SJ000001113-1_T001S001I001C01_001: Geometry optimization step

   ATOM   CHEMICAL          X               Y              Z
  NUMBER   SYMBOL      (ANGSTROMS)     (ANGSTROMS)    (ANGSTROMS)
 
     1       C          1.4290000  *  -34.370000  *   15.454000  *
     2       C          2.8360000  *  -34.332000  *   15.376000  *
     3       C          3.6170000  *  -33.969000  *   16.485000  *
     4       C          4.9730000  *  -33.944000  *   16.375000  *
     5       C          5.6010000  *  -34.274000  *   15.175000  *
     6       C          4.8770000  *  -34.631000  *   14.080000  *
     7       C          3.4740000  *  -34.669000  *   14.156000  *
     8       C          2.6960000  *  -35.033000  *   13.044000  *
     9       C          1.3380000  *  -35.063000  *   13.144000  *
    10       C          0.6970000  *  -34.740000  *   14.340000  *
    11       H          3.1430000  *  -33.710000  *   17.421000  *
    12       H          5.5710000  *  -33.663000  *   17.229000  *
    13       H          6.6800000  *  -34.246000  *   15.114000  *
    14       H          5.3780000  *  -34.883000  *   13.157000  *
    15       H          0.7480000  *  -35.345000  *   12.284000  *
    16       S          3.4770000  *  -35.455000  *   11.522000  *
    17       O          4.1910000  *  -34.269000  *   11.074000  *
    18       O          4.3780000  *  -36.561000  *   11.805000  *
    19       O          2.4180000  *  -35.836000  *   10.600000  *
    20       O         -0.6610000  *  -34.778000  *   14.408000  *
    21       H         -1.0180000  *  -35.646000  *   14.646000  *
    22       N          0.7790000  *  -34.042000  *   16.646000  *
    23       H         -0.1670000  *  -34.225000  *   16.749000  *
    24       H          1.2760000  *  -33.635000  *   17.373000  *
 


          CARTESIAN COORDINATES 

    NO.       ATOM         X         Y         Z

     1         C        1.4290  -34.3700   15.4540
     2         C        2.8360  -34.3320   15.3760
     3         C        3.6170  -33.9690   16.4850
     4         C        4.9730  -33.9440   16.3750
     5         C        5.6010  -34.2740   15.1750
     6         C        4.8770  -34.6310   14.0800
     7         C        3.4740  -34.6690   14.1560
     8         C        2.6960  -35.0330   13.0440
     9         C        1.3380  -35.0630   13.1440
    10         C        0.6970  -34.7400   14.3400
    11         H        3.1430  -33.7100   17.4210
    12         H        5.5710  -33.6630   17.2290
    13         H        6.6800  -34.2460   15.1140
    14         H        5.3780  -34.8830   13.1570
    15         H        0.7480  -35.3450   12.2840
    16         S        3.4770  -35.4550   11.5220
    17         O        4.1910  -34.2690   11.0740
    18         O        4.3780  -36.5610   11.8050
    19         O        2.4180  -35.8360   10.6000
    20         O       -0.6610  -34.7780   14.4080
    21         H       -1.0180  -35.6460   14.6460
    22         N        0.7790  -34.0420   16.6460
    23         H       -0.1670  -34.2250   16.7490
    24         H        1.2760  -33.6350   17.3730

 General Reference for PM6:
 "Optimization of Parameters for Semiempirical Methods V: Modification of NDDO Approximations
 and Application to 70 Elements", J. J. P. Stewart, J. Mol. Mod., 13, 1173-1213 (2007)
 URL: http://www.springerlink.com/content/ar33482301010477/fulltext.pdf

           Empirical Formula: C10 H8 N O4 S  =    24 atoms



      MOLECULAR POINT GROUP   :   C1  
 
   NUMBER AND TYPES OF BONDS IDENTIFIED
 
         SIGMA BONDS               25
         LONE PAIRS                 9
         NORMAL PI BONDS            1
         AROMATIC RING PI BONDS     4
         ANIONS                     3
         SUM OF OTHER CHARGES       2
 
 UNKNOWN RESIDUE:    1 ATOM:    0    C:10 N: 1 O: 4 S: 1 SEE KEYWORD 'XENO'
  AMINO ACID = UNK

                  Ramachandran Angles
              Residue    phi    psi  omega

  

 COMPUTED CHARGE ON SYSTEM:  -1
  SCF CRITERION =    0.1000E-02

 -------------------------------------------------------------------------------
 PM6 T=31532304 DUMP=4320 XYZ EPS=78.40 RSOLV=1.30 MULLIK LBFGS MOZYME PDBOUT +
 CHARGE=-1 RELSCF=0.1 LET DDMIN=0.0 GNORM=0.15 1SCF
 SJ000001113-1_T001S001I001C01_001: Geometry optimization step



     1SCF WAS SPECIFIED, SO BFGS WAS NOT USED                 
     SCF FIELD WAS ACHIEVED                                   


                               PM6     CALCULATION
                                                       MOPAC2009 (Version: 9.015L)
                                                       Tue Sep  6 17:22:28 2011




          FINAL HEAT OF FORMATION =       -236.30615 KCAL =    -988.70493 KJ
          VAN DER WAALS AREA      =        222.70 SQUARE ANGSTROMS


          TOTAL ENERGY            =      -3011.69674 EV
          ELECTRONIC ENERGY       =     -16758.12112 EV
          CORE-CORE REPULSION     =      13746.42438 EV
          DIELECTRIC ENERGY       =         -4.11323 EV
          COSMO AREA              =        222.70 SQUARE ANGSTROMS
          COSMO VOLUME            =        236.83 CUBIC ANGSTROMS

          NO. OF FILLED LEVELS    =         42
          MOLECULAR WEIGHT        =        238.238

          MOLECULAR DIMENSIONS (Angstroms)

            Atom       Atom       Distance
            H    12    O    19     7.65552
            H    13    H    23     6.89927
            O    18    O    17     2.41226


          SCF CALCULATIONS        =          2
          COMPUTATION TIME        =          0.221 SECONDS




   ATOM           CHEMICAL             X               Y              Z
  NUMBER           SYMBOL         (ANGSTROMS)     (ANGSTROMS)    (ANGSTROMS)
 
     1       C(     1 UNK*  1)    1.4290000  *  -34.370000  *   15.454000  *
     2       C(     2 UNK   1)    2.8360000  *  -34.332000  *   15.376000  *
     3       C(     3 UNK   1)    3.6170000  *  -33.969000  *   16.485000  *
     4       C(     4 UNK   1)    4.9730000  *  -33.944000  *   16.375000  *
     5       C(     5 UNK   1)    5.6010000  *  -34.274000  *   15.175000  *
     6       C(     6 UNK   1)    4.8770000  *  -34.631000  *   14.080000  *
     7       C(     7 UNK   1)    3.4740000  *  -34.669000  *   14.156000  *
     8       C(     8 UNK   1)    2.6960000  *  -35.033000  *   13.044000  *
     9       C(     9 UNK   1)    1.3380000  *  -35.063000  *   13.144000  *
    10       C(    10 UNK*  1)    0.6970000  *  -34.740000  *   14.340000  *
    11       H(    11 UNK   1)    3.1430000  *  -33.710000  *   17.421000  *
    12       H(    12 UNK   1)    5.5710000  *  -33.663000  *   17.229000  *
    13       H(    13 UNK   1)    6.6800000  *  -34.246000  *   15.114000  *
    14       H(    14 UNK   1)    5.3780000  *  -34.883000  *   13.157000  *
    15       H(    15 UNK   1)    0.7480000  *  -35.345000  *   12.284000  *
    16       S(    16 UNK   1)    3.4770000  *  -35.455000  *   11.522000  *
    17       O(    17 UNK   1)    4.1910000  *  -34.269000  *   11.074000  *
    18       O(    18 UNK   1)    4.3780000  *  -36.561000  *   11.805000  *
    19       O(    19 UNK   1)    2.4180000  *  -35.836000  *   10.600000  *
    20       O(    20 UNK*  1)   -0.6610000  *  -34.778000  *   14.408000  *
    21       H(    21 UNK*  1)   -1.0180000  *  -35.646000  *   14.646000  *
    22       N(    22 UNK*  1)    0.7790000  *  -34.042000  *   16.646000  *
    23       H(    23 UNK*  1)   -0.1670000  *  -34.225000  *   16.749000  *
    24       H(    24 UNK*  1)    1.2760000  *  -33.635000  *   17.373000  *

           Empirical Formula: C10 H8 N O4 S  =    24 atoms



              NET ATOMIC CHARGES AND DIPOLE CONTRIBUTIONS

  ATOM NO.   TYPE          CHARGE      No. of ELECS.   s-Pop       p-Pop       d-Pop       
    1          C           0.242935        3.7571     1.07734     2.67973
    2          C          -0.212701        4.2127     1.07819     3.13451
    3          C          -0.072687        4.0727     1.09893     2.97376
    4          C          -0.228669        4.2287     1.09785     3.13082
    5          C          -0.056649        4.0566     1.09974     2.95691
    6          C          -0.283597        4.2836     1.10741     3.17618
    7          C           0.238203        3.7618     1.06445     2.69734
    8          C          -0.679436        4.6794     1.15092     3.52852
    9          C           0.045283        3.9547     1.10012     2.85459
   10          C          -0.037303        4.0373     1.05340     2.98391
   11          H           0.157860        0.8421     0.84214
   12          H           0.167731        0.8323     0.83227
   13          H           0.156088        0.8439     0.84391
   14          H           0.183490        0.8165     0.81651
   15          H           0.165412        0.8346     0.83459
   16          S           2.622193        3.3778     1.13330     1.87907     0.36543
   17          O          -1.106967        7.1070     1.87412     5.23285
   18          O          -1.106317        7.1063     1.87380     5.23252
   19          O          -1.106056        7.1061     1.87380     5.23226
   20          O          -0.544237        6.5442     1.77692     4.76732
   21          H           0.358957        0.6410     0.64104
   22          N          -0.463336        5.4633     1.42531     4.03802
   23          H           0.281467        0.7185     0.71853
   24          H           0.278338        0.7217     0.72166

             NET CHARGE ON RESIDUES

     Residue        Charge

      UNK   1        -1.000 ANION
 
 DIPOLE           X         Y         Z       TOTAL
 POINT-CHG.    -4.573     3.684    18.439    19.352
 HYBRID        -0.885    -0.108     0.884     1.255
 SUM           -5.458     3.576    19.323    20.395


          CARTESIAN COORDINATES 

    NO.       ATOM               X         Y         Z

     1         C                  1.4290  -34.3700   15.4540
     2         C                  2.8360  -34.3320   15.3760
     3         C                  3.6170  -33.9690   16.4850
     4         C                  4.9730  -33.9440   16.3750
     5         C                  5.6010  -34.2740   15.1750
     6         C                  4.8770  -34.6310   14.0800
     7         C                  3.4740  -34.6690   14.1560
     8         C                  2.6960  -35.0330   13.0440
     9         C                  1.3380  -35.0630   13.1440
    10         C                  0.6970  -34.7400   14.3400
    11         H                  3.1430  -33.7100   17.4210
    12         H                  5.5710  -33.6630   17.2290
    13         H                  6.6800  -34.2460   15.1140
    14         H                  5.3780  -34.8830   13.1570
    15         H                  0.7480  -35.3450   12.2840
    16         S                  3.4770  -35.4550   11.5220
    17         O                  4.1910  -34.2690   11.0740
    18         O                  4.3780  -36.5610   11.8050
    19         O                  2.4180  -35.8360   10.6000
    20         O                 -0.6610  -34.7780   14.4080
    21         H                 -1.0180  -35.6460   14.6460
    22         N                  0.7790  -34.0420   16.6460
    23         H                 -0.1670  -34.2250   16.7490
    24         H                  1.2760  -33.6350   17.3730


          ATOMIC ORBITAL ELECTRON POPULATIONS

   1.07734   0.93417   0.88034   0.86522   1.07819   0.96716   1.14528   1.02207
   1.09893   0.99260   0.95174   1.02942   1.09785   1.01701   1.05716   1.05665
   1.09974   1.07172   0.92473   0.96046   1.10741   1.01517   1.07684   1.08417
   1.06445   0.92757   0.86633   0.90345   1.15092   1.07381   1.27110   1.18361
   1.10012   0.97089   0.86440   1.01931   1.05340   0.78295   1.21792   0.98304
   0.84214   0.83227   0.84391   0.81651   0.83459   1.13330   0.61998   0.61775
   0.64134   0.07339   0.07671   0.05852   0.05848   0.09833   1.87412   1.78415
   1.59822   1.85048   1.87380   1.72399   1.63995   1.86859   1.87380   1.65453
   1.85506   1.72267   1.77692   1.30984   1.52530   1.93218   0.64104   1.42531
   1.20403   1.64033   1.19366   0.71853   0.72166

           MULLIKEN POPULATION ANALYSIS



        MULLIKEN POPULATIONS AND CHARGES

      NO.  ATOM   POPULATION      CHARGE
        1    C     3.721817      0.278183
        2    C     4.236155     -0.236155
        3    C     4.111239     -0.111239
        4    C     4.286615     -0.286615
        5    C     4.100270     -0.100270
        6    C     4.349682     -0.349682
        7    C     3.726683      0.273317
        8    C     4.771445     -0.771445
        9    C     3.977036      0.022964
       10    C     4.036083     -0.036083
       11    H     0.792897      0.207103
       12    H     0.777997      0.222003
       13    H     0.792839      0.207161
       14    H     0.759016      0.240984
       15    H     0.781440      0.218560
       16    S     3.169305      2.830695
       17    O     7.158359     -1.158359
       18    O     7.157872     -1.157872
       19    O     7.157547     -1.157547
       20    O     6.591287     -0.591287
       21    H     0.607255      0.392745
       22    N     5.651455     -0.651455
       23    H     0.640648      0.359352
       24    H     0.645056      0.354944



 TOTAL CPU TIME:             0.22 SECONDS

 == MOPAC DONE ==
 *******************************************************************************
 ** Site#:  958            For non-commercial use only         Version 9.015L **
 *******************************************************************************
 ** Cite this work as: MOPAC2009, James J. P. Stewart, Stewart Computational  **
 ** Chemistry, Version 9.015L web: HTTP://OpenMOPAC.net                       **
 *******************************************************************************
 **                                                                           **
 **                                MOPAC2009                                  **
 **                                                                           **
 *******************************************************************************

                            PM6 CALCULATION RESULTS


 *******************************************************************************
 *  CALCULATION DONE:                                Tue Sep  6 17:22:28 2011  *
 *  PM6      - The PM6 Hamiltonian to be used
 *  GEO-OK   - OVERRIDE INTERATOMIC DISTANCE CHECK
 *  MOZYME   - USE LOCALIZED M.O.s IN SOLVING THE SCF EQUATIONS
 *
 *
 *
 *                 CHARGE ON SYSTEM =    -1
 *
 *
 *
 *  EPS= 78.400
 *  RSOLV=  1.300
 *  OLDGEO   - PREVIOUS GEOMETRY TO BE USED
 *  T=       - A TIME OF 172800.0 SECONDS REQUESTED
 *  DUMP=N   - RESTART FILE WRITTEN EVERY  4320.000 SECONDS
 *  RELSCF   - DEFAULT SCF CRITERION MULTIPLIED BY   0.100    
 *             (DEFAULT SCFCRT= 0.00010)
 *  THERMO   - THERMODYNAMIC QUANTITIES TO BE CALCULATED
 *******************************************************************************
 PM6 DUMP=4320 MOZYME RELSCF=0.1 THERMO EPS=78.40 RSOLV=1.30 +
 OLDGEO GEO-OK CHARGE=-1
 SJ000001113-1_T001S001I001C01_001: Free energy calculation

   ATOM           CHEMICAL             X               Y              Z
  NUMBER           SYMBOL         (ANGSTROMS)     (ANGSTROMS)    (ANGSTROMS)
 
     1       C(     1 UNK*  1)    1.4290000  *  -34.370000  *   15.454000  *
     2       C(     2 UNK   1)    2.8360000  *  -34.332000  *   15.376000  *
     3       C(     3 UNK   1)    3.6170000  *  -33.969000  *   16.485000  *
     4       C(     4 UNK   1)    4.9730000  *  -33.944000  *   16.375000  *
     5       C(     5 UNK   1)    5.6010000  *  -34.274000  *   15.175000  *
     6       C(     6 UNK   1)    4.8770000  *  -34.631000  *   14.080000  *
     7       C(     7 UNK   1)    3.4740000  *  -34.669000  *   14.156000  *
     8       C(     8 UNK   1)    2.6960000  *  -35.033000  *   13.044000  *
     9       C(     9 UNK   1)    1.3380000  *  -35.063000  *   13.144000  *
    10       C(    10 UNK*  1)    0.6970000  *  -34.740000  *   14.340000  *
    11       H(    11 UNK   1)    3.1430000  *  -33.710000  *   17.421000  *
    12       H(    12 UNK   1)    5.5710000  *  -33.663000  *   17.229000  *
    13       H(    13 UNK   1)    6.6800000  *  -34.246000  *   15.114000  *
    14       H(    14 UNK   1)    5.3780000  *  -34.883000  *   13.157000  *
    15       H(    15 UNK   1)    0.7480000  *  -35.345000  *   12.284000  *
    16       S(    16 UNK   1)    3.4770000  *  -35.455000  *   11.522000  *
    17       O(    17 UNK   1)    4.1910000  *  -34.269000  *   11.074000  *
    18       O(    18 UNK   1)    4.3780000  *  -36.561000  *   11.805000  *
    19       O(    19 UNK   1)    2.4180000  *  -35.836000  *   10.600000  *
    20       O(    20 UNK*  1)   -0.6610000  *  -34.778000  *   14.408000  *
    21       H(    21 UNK*  1)   -1.0180000  *  -35.646000  *   14.646000  *
    22       N(    22 UNK*  1)    0.7790000  *  -34.042000  *   16.646000  *
    23       H(    23 UNK*  1)   -0.1670000  *  -34.225000  *   16.749000  *
    24       H(    24 UNK*  1)    1.2760000  *  -33.635000  *   17.373000  *
 


          CARTESIAN COORDINATES 

    NO.       ATOM         X         Y         Z

     1         C        1.4290  -34.3700   15.4540
     2         C        2.8360  -34.3320   15.3760
     3         C        3.6170  -33.9690   16.4850
     4         C        4.9730  -33.9440   16.3750
     5         C        5.6010  -34.2740   15.1750
     6         C        4.8770  -34.6310   14.0800
     7         C        3.4740  -34.6690   14.1560
     8         C        2.6960  -35.0330   13.0440
     9         C        1.3380  -35.0630   13.1440
    10         C        0.6970  -34.7400   14.3400
    11         H        3.1430  -33.7100   17.4210
    12         H        5.5710  -33.6630   17.2290
    13         H        6.6800  -34.2460   15.1140
    14         H        5.3780  -34.8830   13.1570
    15         H        0.7480  -35.3450   12.2840
    16         S        3.4770  -35.4550   11.5220
    17         O        4.1910  -34.2690   11.0740
    18         O        4.3780  -36.5610   11.8050
    19         O        2.4180  -35.8360   10.6000
    20         O       -0.6610  -34.7780   14.4080
    21         H       -1.0180  -35.6460   14.6460
    22         N        0.7790  -34.0420   16.6460
    23         H       -0.1670  -34.2250   16.7490
    24         H        1.2760  -33.6350   17.3730

 General Reference for PM6:
 "Optimization of Parameters for Semiempirical Methods V: Modification of NDDO Approximations
 and Application to 70 Elements", J. J. P. Stewart, J. Mol. Mod., 13, 1173-1213 (2007)
 URL: http://www.springerlink.com/content/ar33482301010477/fulltext.pdf

           Empirical Formula: C10 H8 N O4 S  =    24 atoms



      MOLECULAR POINT GROUP   :   C1  
 
   NUMBER AND TYPES OF BONDS IDENTIFIED
 
         SIGMA BONDS               25
         LONE PAIRS                 9
         NORMAL PI BONDS            1
         AROMATIC RING PI BONDS     4
         ANIONS                     3
         SUM OF OTHER CHARGES       2
 

 COMPUTED CHARGE ON SYSTEM:  -1
  SCF CRITERION =    0.1000E-02


          HEAT OF FORMATION =    -236.305518 KCALS/MOLE


          INTERNAL COORDINATE DERIVATIVES

   NUMBER  ATOM       BOND         ANGLE      DIHEDRAL

     1       C
     2       C     33.006159
     3       C    -48.104454    -0.878328
     4       C    -15.950518     7.257396     3.241643
     5       C      0.564216   -13.509463     0.103707
     6       C     -7.722868   -27.170259    -0.050211
     7       C    -24.932375     7.055150    -0.108753
     8       C    -11.972946     7.370997     0.080086
     9       C      7.098842     2.099022     0.398104
    10       C    -12.334497    24.062526     1.110683
    11       H      8.127202    18.715449    -1.378742
    12       H     -0.997025    16.321311    -8.330916
    13       H      3.827836    -8.885597     0.018946
    14       H     -6.622923    -7.778030    -0.074983
    15       H    -10.228391    -1.720842     0.052889
    16       S     -7.068638     6.460106    -0.096034
    17       O     10.402070     8.829342    -0.110562
    18       O     34.197698   -54.085290     1.250061
    19       O    -27.178996     7.229218    40.288110
    20       O    -30.496018     5.958252   -39.487297
    21       H     30.861583    38.318129    -2.054473
    22       N     28.048270     0.058538    19.326800
    23       H      1.236240     0.923269   -13.464776
    24       H    -19.899719    37.769017     0.314759


          GRADIENT NORM = 154.03155



 ** GRADIENT IS TOO LARGE TO ALLOW FORCE MATRIX TO BE CALCULATED, (LIMIT=10) **



 EITHER ADD 'LET' OR REDUCE GRADIENT
 USING 'TS' OR OTHER GEOMETRY OPTIMIZER



 TOTAL CPU TIME:             0.56 SECONDS

 == MOPAC DONE ==
