 *******************************************************************************
 ** Site#:  958            For non-commercial use only         Version 9.015L **
 *******************************************************************************
 ** Cite this work as: MOPAC2009, James J. P. Stewart, Stewart Computational  **
 ** Chemistry, Version 9.015L web: HTTP://OpenMOPAC.net                       **
 *******************************************************************************
 **                                                                           **
 **                                MOPAC2009                                  **
 **                                                                           **
 *******************************************************************************

                            PM6 CALCULATION RESULTS


 *******************************************************************************
 *  CALCULATION DONE:                                Tue Sep  6 16:25:50 2011  *
 *  PM6      - The PM6 Hamiltonian to be used
 *
 *
 *
 *                 CHARGE ON SYSTEM =     0
 *
 *
 *
 *  EPS= 78.400
 *  RSOLV=  1.300
 *  LET      - OVERRIDE SOME SAFETY CHECKS
 *  XYZ      - CARTESIAN COORDINATE SYSTEM TO BE USED
 *  T=       - A TIME OF  0.3E+08 SECONDS REQUESTED
 *  DUMP=N   - RESTART FILE WRITTEN EVERY  4320.000 SECONDS
 *  DDMIN=   - MINIMUM TRUST RADIUS  0.000 ANG/RAD
 *  GNORM=   - EXIT WHEN GRADIENT NORM DROPS BELOW .150    
 *  RELSCF   - DEFAULT SCF CRITERION MULTIPLIED BY   0.100    
 *             (DEFAULT SCFCRT= 0.00010)
 *  SYBYL    - OUTPUT SYBYL FILE
 *  MULLIK   - THE MULLIKEN ANALYSIS TO BE PERFORMED
 *******************************************************************************
 PM6 T=31535702 DUMP=4320 XYZ EPS=78.40 RSOLV=1.30 MULLIK SYBYL +
 CHARGE=0 RELSCF=0.1 LET DDMIN=0.0 GNORM=0.15
 SJ000002349-1_T001S001I001C03: Geometry optimization step

   ATOM   CHEMICAL          X               Y              Z
  NUMBER   SYMBOL      (ANGSTROMS)     (ANGSTROMS)    (ANGSTROMS)
 
     1       C          1.3580000  *   -5.537000  *    4.339000  *
     2       C          0.0670000  *   -4.816000  *    3.949000  *
     3       C          0.2420000  *   -4.136000  *    2.612000  *
     4       C          1.0620000  *   -4.667000  *    1.684000  *
     5       C          1.2340000  *   -3.982000  *    0.351000  *
     6       C          0.7960000  *   -2.541000  *    0.433000  *
     7       C         -0.0040000  *   -2.137000  *    1.439000  *
     8       C         -0.4360000  *   -0.693000  *    1.534000  *
     9       C         -0.5520000  *   -0.092000  *    0.132000  *
    10       C          0.8280000  *   -0.192000  *   -0.523000  *
    11       C          1.2370000  *   -1.639000  *   -0.552000  *
    12       O          1.9610000  *   -2.036000  *   -1.443000  *
    13       O         -0.4350000  *   -3.002000  *    2.370000  *
    14       C          1.7700000  *   -5.857000  *    1.933000  *
    15       O          2.4910000  *   -6.314000  *    1.069000  *
    16       C          1.6500000  *   -6.573000  *    3.251000  *
    17       H         -0.7450000  *   -5.540000  *    3.883000  *
    18       H         -0.1740000  *   -4.069000  *    4.706000  *
    19       H          2.2840000  *   -4.021000  *    0.060000  *
    20       H         -1.4030000  *   -0.637000  *    2.033000  *
    21       H          0.3010000  *   -0.132000  *    2.108000  *
    22       H          0.7800000  *    0.197000  *   -1.540000  *
    23       H          1.5510000  *    0.383000  *    0.057000  *
    24       H          2.5840000  *   -7.088000  *    3.475000  *
    25       H          0.8350000  *   -7.294000  *    3.203000  *
    26       C          0.4050000  *   -4.695000  *   -0.685000  *
    27       C          1.0170000  *   -5.257000  *   -1.796000  *
    28       C          0.2530000  *   -5.913000  *   -2.749000  *
    29       C         -1.1210000  *   -6.005000  *   -2.590000  *
    30       H          0.7270000  *   -6.352000  *   -3.615000  *
    31       C         -1.7290000  *   -5.441000  *   -1.477000  *
    32       C         -0.9650000  *   -4.792000  *   -0.525000  *
    33       H         -2.7990000  *   -5.511000  *   -1.352000  *
    34       H         -1.4390000  *   -4.354000  *    0.340000  *
    35       O          2.3640000  *   -5.166000  *   -1.949000  *
    36       H          2.8550000  *   -5.899000  *   -1.553000  *
    37       O         -1.8730000  *   -6.648000  *   -3.522000  *
    38       H         -1.9880000  *   -7.593000  *   -3.351000  *
    39       C          2.5100000  *   -4.532000  *    4.423000  *
    40       H          2.2780000  *   -3.776000  *    5.174000  *
    41       H          3.4260000  *   -5.052000  *    4.702000  *
    42       H          2.6440000  *   -4.052000  *    3.454000  *
    43       C          1.1770000  *   -6.234000  *    5.689000  *
    44       H          0.9520000  *   -5.491000  *    6.454000  *
    45       H          0.3560000  *   -6.947000  *    5.622000  *
    46       H          2.0950000  *   -6.759000  *    5.953000  *
    47       C         -1.5750000  *   -0.880000  *   -0.689000  *
    48       H         -2.5470000  *   -0.836000  *   -0.197000  *
    49       H         -1.6530000  *   -0.446000  *   -1.685000  *
    50       H         -1.2550000  *   -1.918000  *   -0.768000  *
    51       C         -0.9810000  *    1.374000  *    0.229000  *
    52       H         -0.2380000  *    1.932000  *    0.799000  *
    53       H         -1.0610000  *    1.796000  *   -0.773000  *
    54       H         -1.9470000  *    1.438000  *    0.729000  *
 


          CARTESIAN COORDINATES 

    NO.       ATOM         X         Y         Z

     1         C        1.3580   -5.5370    4.3390
     2         C        0.0670   -4.8160    3.9490
     3         C        0.2420   -4.1360    2.6120
     4         C        1.0620   -4.6670    1.6840
     5         C        1.2340   -3.9820    0.3510
     6         C        0.7960   -2.5410    0.4330
     7         C       -0.0040   -2.1370    1.4390
     8         C       -0.4360   -0.6930    1.5340
     9         C       -0.5520   -0.0920    0.1320
    10         C        0.8280   -0.1920   -0.5230
    11         C        1.2370   -1.6390   -0.5520
    12         O        1.9610   -2.0360   -1.4430
    13         O       -0.4350   -3.0020    2.3700
    14         C        1.7700   -5.8570    1.9330
    15         O        2.4910   -6.3140    1.0690
    16         C        1.6500   -6.5730    3.2510
    17         H       -0.7450   -5.5400    3.8830
    18         H       -0.1740   -4.0690    4.7060
    19         H        2.2840   -4.0210    0.0600
    20         H       -1.4030   -0.6370    2.0330
    21         H        0.3010   -0.1320    2.1080
    22         H        0.7800    0.1970   -1.5400
    23         H        1.5510    0.3830    0.0570
    24         H        2.5840   -7.0880    3.4750
    25         H        0.8350   -7.2940    3.2030
    26         C        0.4050   -4.6950   -0.6850
    27         C        1.0170   -5.2570   -1.7960
    28         C        0.2530   -5.9130   -2.7490
    29         C       -1.1210   -6.0050   -2.5900
    30         H        0.7270   -6.3520   -3.6150
    31         C       -1.7290   -5.4410   -1.4770
    32         C       -0.9650   -4.7920   -0.5250
    33         H       -2.7990   -5.5110   -1.3520
    34         H       -1.4390   -4.3540    0.3400
    35         O        2.3640   -5.1660   -1.9490
    36         H        2.8550   -5.8990   -1.5530
    37         O       -1.8730   -6.6480   -3.5220
    38         H       -1.9880   -7.5930   -3.3510
    39         C        2.5100   -4.5320    4.4230
    40         H        2.2780   -3.7760    5.1740
    41         H        3.4260   -5.0520    4.7020
    42         H        2.6440   -4.0520    3.4540
    43         C        1.1770   -6.2340    5.6890
    44         H        0.9520   -5.4910    6.4540
    45         H        0.3560   -6.9470    5.6220
    46         H        2.0950   -6.7590    5.9530
    47         C       -1.5750   -0.8800   -0.6890
    48         H       -2.5470   -0.8360   -0.1970
    49         H       -1.6530   -0.4460   -1.6850
    50         H       -1.2550   -1.9180   -0.7680
    51         C       -0.9810    1.3740    0.2290
    52         H       -0.2380    1.9320    0.7990
    53         H       -1.0610    1.7960   -0.7730
    54         H       -1.9470    1.4380    0.7290

 General Reference for PM6:
 "Optimization of Parameters for Semiempirical Methods V: Modification of NDDO Approximations
 and Application to 70 Elements", J. J. P. Stewart, J. Mol. Mod., 13, 1173-1213 (2007)
 URL: http://www.springerlink.com/content/ar33482301010477/fulltext.pdf

           Empirical Formula: C23 H26 O5  =    54 atoms



      MOLECULAR POINT GROUP   :   C1  


      RHF CALCULATION, NO. OF DOUBLY OCCUPIED LEVELS =   74

      Geometry optimization using EF
  SCF CRITERION =    0.1000E-04

          DIAGONAL MATRIX USED AS START HESSIAN

 CYCLE:     1 TIME:   0.269 TIME LEFT: 16.53W  GRAD.:   191.228 HEAT:-192.8016
 CYCLE:     2 TIME:   0.173 TIME LEFT: 16.53W  GRAD.:   185.394 HEAT:-201.1206
 CYCLE:     3 TIME:   0.148 TIME LEFT: 16.53W  GRAD.:   192.670 HEAT:-205.8145
 CYCLE:     4 TIME:   0.147 TIME LEFT: 16.53W  GRAD.:   273.892 HEAT:-197.3538
 CYCLE:     5 TIME:   0.146 TIME LEFT: 16.53W  GRAD.:   246.118 HEAT:-203.0219
 CYCLE:     6 TIME:   0.149 TIME LEFT: 16.53W  GRAD.:   313.389 HEAT:-196.9044
 CYCLE:     7 TIME:   0.150 TIME LEFT: 16.53W  GRAD.:   216.760 HEAT:-203.0989
 CYCLE:     8 TIME:   0.147 TIME LEFT: 16.53W  GRAD.:   177.569 HEAT:-208.2730
 CYCLE:     9 TIME:   0.146 TIME LEFT: 16.53W  GRAD.:   296.936 HEAT:-198.5903
 CYCLE:    10 TIME:   0.147 TIME LEFT: 16.53W  GRAD.:   263.611 HEAT:-201.7551
 CYCLE:    11 TIME:   0.145 TIME LEFT: 16.53W  GRAD.:   264.140 HEAT:-202.4074
 CYCLE:    12 TIME:   0.147 TIME LEFT: 16.53W  GRAD.:   289.595 HEAT:-199.8198
 CYCLE:    13 TIME:   0.143 TIME LEFT: 16.53W  GRAD.:   252.657 HEAT:-204.5236
 CYCLE:    14 TIME:   0.145 TIME LEFT: 16.53W  GRAD.:   264.427 HEAT:-201.2324
 CYCLE:    15 TIME:   0.151 TIME LEFT: 16.53W  GRAD.:   194.221 HEAT:-206.9007
 CYCLE:    16 TIME:   0.146 TIME LEFT: 16.53W  GRAD.:   234.105 HEAT:-205.6772
 CYCLE:    17 TIME:   0.146 TIME LEFT: 16.53W  GRAD.:   269.829 HEAT:-200.4229
 CYCLE:    18 TIME:   0.146 TIME LEFT: 16.53W  GRAD.:   272.737 HEAT:-202.5429
 CYCLE:    19 TIME:   0.153 TIME LEFT: 16.53W  GRAD.:   210.823 HEAT:-207.5506
 CYCLE:    20 TIME:   0.142 TIME LEFT: 16.53W  GRAD.:   281.720 HEAT:-201.2767
 CYCLE:    21 TIME:   0.148 TIME LEFT: 16.53W  GRAD.:   217.995 HEAT:-206.2223
 CYCLE:    22 TIME:   0.147 TIME LEFT: 16.53W  GRAD.:   277.469 HEAT:-202.4840
 CYCLE:    23 TIME:   0.146 TIME LEFT: 16.53W  GRAD.:   262.972 HEAT:-202.6934
 CYCLE:    24 TIME:   0.144 TIME LEFT: 16.53W  GRAD.:   199.783 HEAT:-209.2092
 CYCLE:    25 TIME:   0.148 TIME LEFT: 16.53W  GRAD.:   254.788 HEAT:-204.7245
 CYCLE:    26 TIME:   0.146 TIME LEFT: 16.53W  GRAD.:   191.587 HEAT:-210.5231
 CYCLE:    27 TIME:   0.146 TIME LEFT: 16.53W  GRAD.:   288.850 HEAT:-201.4539
 CYCLE:    28 TIME:   0.142 TIME LEFT: 16.53W  GRAD.:   218.484 HEAT:-207.5472
 CYCLE:    29 TIME:   0.154 TIME LEFT: 16.53W  GRAD.:   204.989 HEAT:-209.2237
 CYCLE:    30 TIME:   0.153 TIME LEFT: 16.53W  GRAD.:   185.253 HEAT:-209.2195
 CYCLE:    31 TIME:   0.148 TIME LEFT: 16.53W  GRAD.:   171.137 HEAT:-211.4788
 CYCLE:    32 TIME:   0.150 TIME LEFT: 16.53W  GRAD.:   208.159 HEAT:-208.1784
 CYCLE:    33 TIME:   0.145 TIME LEFT: 16.53W  GRAD.:   160.085 HEAT:-212.3641
 CYCLE:    34 TIME:   0.142 TIME LEFT: 16.53W  GRAD.:   206.899 HEAT:-208.6086
 CYCLE:    35 TIME:   0.150 TIME LEFT: 16.53W  GRAD.:   153.539 HEAT:-213.5734
 CYCLE:    36 TIME:   0.145 TIME LEFT: 16.53W  GRAD.:   240.607 HEAT:-207.4280
 CYCLE:    37 TIME:   0.152 TIME LEFT: 16.53W  GRAD.:   146.721 HEAT:-213.7429
 CYCLE:    38 TIME:   0.143 TIME LEFT: 16.53W  GRAD.:   190.636 HEAT:-211.4985
 CYCLE:    39 TIME:   0.144 TIME LEFT: 16.53W  GRAD.:   121.138 HEAT:-216.8557
 CYCLE:    40 TIME:   0.145 TIME LEFT: 16.53W  GRAD.:   208.749 HEAT:-209.9331
 CYCLE:    41 TIME:   0.143 TIME LEFT: 16.53W  GRAD.:    97.827 HEAT:-218.8482
 CYCLE:    42 TIME:   0.146 TIME LEFT: 16.53W  GRAD.:   208.953 HEAT:-208.2878
 CYCLE:    43 TIME:   0.138 TIME LEFT: 16.53W  GRAD.:   101.915 HEAT:-218.7041
 CYCLE:    44 TIME:   0.143 TIME LEFT: 16.53W  GRAD.:   161.794 HEAT:-212.3102
 CYCLE:    45 TIME:   0.147 TIME LEFT: 16.53W  GRAD.:   106.750 HEAT:-218.2608
 CYCLE:    46 TIME:   0.145 TIME LEFT: 16.53W  GRAD.:   159.675 HEAT:-213.3692
 CYCLE:    47 TIME:   0.144 TIME LEFT: 16.53W  GRAD.:   154.617 HEAT:-214.7048
 CYCLE:    48 TIME:   0.145 TIME LEFT: 16.53W  GRAD.:   132.864 HEAT:-216.2247
 CYCLE:    49 TIME:   0.145 TIME LEFT: 16.53W  GRAD.:   126.131 HEAT:-217.3722
 CYCLE:    50 TIME:   0.144 TIME LEFT: 16.53W  GRAD.:   174.272 HEAT:-212.0699
 CYCLE:    51 TIME:   0.144 TIME LEFT: 16.53W  GRAD.:   116.330 HEAT:-217.7550
 CYCLE:    52 TIME:   0.145 TIME LEFT: 16.53W  GRAD.:   157.106 HEAT:-214.5380
 CYCLE:    53 TIME:   0.143 TIME LEFT: 16.53W  GRAD.:   103.368 HEAT:-218.9623
 CYCLE:    54 TIME:   0.143 TIME LEFT: 16.53W  GRAD.:   179.532 HEAT:-213.5875
 CYCLE:    55 TIME:   0.151 TIME LEFT: 16.53W  GRAD.:   101.637 HEAT:-219.4957
 CYCLE:    56 TIME:   0.144 TIME LEFT: 16.53W  GRAD.:   169.310 HEAT:-214.9820
 CYCLE:    57 TIME:   0.150 TIME LEFT: 16.53W  GRAD.:    87.580 HEAT:-220.9884
 CYCLE:    58 TIME:   0.141 TIME LEFT: 16.53W  GRAD.:   199.846 HEAT:-212.9427
 CYCLE:    59 TIME:   0.152 TIME LEFT: 16.53W  GRAD.:    76.667 HEAT:-221.7674
 CYCLE:    60 TIME:   0.142 TIME LEFT: 16.53W  GRAD.:   186.206 HEAT:-213.3487
 CYCLE:    61 TIME:   0.162 TIME LEFT: 16.53W  GRAD.:    72.983 HEAT:-222.1329
 CYCLE:    62 TIME:   0.142 TIME LEFT: 16.53W  GRAD.:   149.541 HEAT:-215.5516
 CYCLE:    63 TIME:   0.149 TIME LEFT: 16.53W  GRAD.:    59.810 HEAT:-223.3497
 CYCLE:    64 TIME:   0.146 TIME LEFT: 16.53W  GRAD.:   191.261 HEAT:-211.4658
 CYCLE:    65 TIME:   0.154 TIME LEFT: 16.53W  GRAD.:    49.341 HEAT:-223.7230
 CYCLE:    66 TIME:   0.142 TIME LEFT: 16.53W  GRAD.:   163.351 HEAT:-213.6062
 CYCLE:    67 TIME:   0.143 TIME LEFT: 16.53W  GRAD.:    48.436 HEAT:-223.9725
 CYCLE:    68 TIME:   0.144 TIME LEFT: 16.53W  GRAD.:   150.048 HEAT:-214.1401
 CYCLE:    69 TIME:   0.144 TIME LEFT: 16.53W  GRAD.:    40.826 HEAT:-224.5338
 CYCLE:    70 TIME:   0.142 TIME LEFT: 16.53W  GRAD.:   176.438 HEAT:-212.1962
 CYCLE:    71 TIME:   0.142 TIME LEFT: 16.53W  GRAD.:    31.918 HEAT:-224.8491
 CYCLE:    72 TIME:   0.144 TIME LEFT: 16.53W  GRAD.:   129.766 HEAT:-217.9329
 CYCLE:    73 TIME:   0.144 TIME LEFT: 16.53W  GRAD.:    33.011 HEAT:-225.0406
 CYCLE:    74 TIME:   0.142 TIME LEFT: 16.53W  GRAD.:   116.649 HEAT:-218.8827
 CYCLE:    75 TIME:   0.138 TIME LEFT: 16.53W  GRAD.:    19.055 HEAT:-225.5203
 CYCLE:    76 TIME:   0.144 TIME LEFT: 16.53W  GRAD.:    81.931 HEAT:-222.9543
 CYCLE:    77 TIME:   0.135 TIME LEFT: 16.53W  GRAD.:    15.083 HEAT:-225.7239
 CYCLE:    78 TIME:   0.133 TIME LEFT: 16.53W  GRAD.:    49.377 HEAT:-224.8782
 CYCLE:    79 TIME:   0.135 TIME LEFT: 16.53W  GRAD.:    19.814 HEAT:-226.0036
 CYCLE:    80 TIME:   0.135 TIME LEFT: 16.53W  GRAD.:    61.512 HEAT:-224.5177
 CYCLE:    81 TIME:   0.135 TIME LEFT: 16.53W  GRAD.:    26.701 HEAT:-226.2875
 CYCLE:    82 TIME:   0.142 TIME LEFT: 16.53W  GRAD.:    90.405 HEAT:-223.0085
 CYCLE:    83 TIME:   0.142 TIME LEFT: 16.53W  GRAD.:    25.268 HEAT:-226.9178
 CYCLE:    84 TIME:   0.144 TIME LEFT: 16.53W  GRAD.:    93.459 HEAT:-223.5978
 CYCLE:    85 TIME:   0.138 TIME LEFT: 16.53W  GRAD.:    29.704 HEAT:-227.3478
 CYCLE:    86 TIME:   0.141 TIME LEFT: 16.53W  GRAD.:   112.370 HEAT:-222.4192
 CYCLE:    87 TIME:   0.142 TIME LEFT: 16.53W  GRAD.:    24.236 HEAT:-228.1052
 CYCLE:    88 TIME:   0.144 TIME LEFT: 16.53W  GRAD.:   103.030 HEAT:-224.2259
 CYCLE:    89 TIME:   0.134 TIME LEFT: 16.53W  GRAD.:    18.503 HEAT:-228.6768
 CYCLE:    90 TIME:   0.135 TIME LEFT: 16.53W  GRAD.:    55.126 HEAT:-227.5897
 CYCLE:    91 TIME:   0.133 TIME LEFT: 16.53W  GRAD.:    18.198 HEAT:-229.0008
 CYCLE:    92 TIME:   0.143 TIME LEFT: 16.53W  GRAD.:    60.528 HEAT:-227.8269
 CYCLE:    93 TIME:   0.132 TIME LEFT: 16.53W  GRAD.:    15.276 HEAT:-229.5203
 CYCLE:    94 TIME:   0.138 TIME LEFT: 16.53W  GRAD.:    58.642 HEAT:-228.1987
 CYCLE:    95 TIME:   0.136 TIME LEFT: 16.53W  GRAD.:    14.731 HEAT:-229.7515
 CYCLE:    96 TIME:   0.132 TIME LEFT: 16.53W  GRAD.:    48.580 HEAT:-228.7080
 CYCLE:    97 TIME:   0.134 TIME LEFT: 16.53W  GRAD.:    11.187 HEAT:-229.8760
 CYCLE:    98 TIME:   0.137 TIME LEFT: 16.53W  GRAD.:    32.064 HEAT:-229.4345
 CYCLE:    99 TIME:   0.134 TIME LEFT: 16.53W  GRAD.:     9.522 HEAT:-229.9795
 CYCLE:   100 TIME:   0.133 TIME LEFT: 16.53W  GRAD.:    41.528 HEAT:-229.3729
 CYCLE:   101 TIME:   0.134 TIME LEFT: 16.53W  GRAD.:     2.956 HEAT:-230.1255
 CYCLE:   102 TIME:   0.130 TIME LEFT: 16.53W  GRAD.:     8.200 HEAT:-230.1352
 CYCLE:   103 TIME:   0.129 TIME LEFT: 16.53W  GRAD.:     6.492 HEAT:-230.1603
 CYCLE:   104 TIME:   0.133 TIME LEFT: 16.53W  GRAD.:    10.544 HEAT:-230.1935
 CYCLE:   105 TIME:   0.129 TIME LEFT: 16.53W  GRAD.:     5.599 HEAT:-230.2400
 CYCLE:   106 TIME:   0.130 TIME LEFT: 16.53W  GRAD.:    13.747 HEAT:-230.1927
 CYCLE:   107 TIME:   0.129 TIME LEFT: 16.53W  GRAD.:     8.282 HEAT:-230.3682
 CYCLE:   108 TIME:   0.135 TIME LEFT: 16.53W  GRAD.:    13.270 HEAT:-230.3384
 CYCLE:   109 TIME:   0.130 TIME LEFT: 16.53W  GRAD.:     5.341 HEAT:-230.4250
 CYCLE:   110 TIME:   0.133 TIME LEFT: 16.53W  GRAD.:    21.331 HEAT:-230.2561
 CYCLE:   111 TIME:   0.130 TIME LEFT: 16.53W  GRAD.:     4.301 HEAT:-230.4756
 CYCLE:   112 TIME:   0.129 TIME LEFT: 16.53W  GRAD.:     9.141 HEAT:-230.4524
 CYCLE:   113 TIME:   0.128 TIME LEFT: 16.53W  GRAD.:     4.842 HEAT:-230.5323
 CYCLE:   114 TIME:   0.134 TIME LEFT: 16.53W  GRAD.:    15.765 HEAT:-230.5037
 CYCLE:   115 TIME:   0.133 TIME LEFT: 16.53W  GRAD.:    12.592 HEAT:-230.6256
 CYCLE:   116 TIME:   0.134 TIME LEFT: 16.53W  GRAD.:    14.236 HEAT:-230.6095
 CYCLE:   117 TIME:   0.133 TIME LEFT: 16.53W  GRAD.:     5.714 HEAT:-230.6610
 CYCLE:   118 TIME:   0.133 TIME LEFT: 16.53W  GRAD.:    16.890 HEAT:-230.5871
 CYCLE:   119 TIME:   0.133 TIME LEFT: 16.53W  GRAD.:    12.191 HEAT:-230.7006
 CYCLE:   120 TIME:   0.132 TIME LEFT: 16.53W  GRAD.:    17.461 HEAT:-230.6109
 CYCLE:   121 TIME:   0.128 TIME LEFT: 16.53W  GRAD.:     7.618 HEAT:-230.7670
 CYCLE:   122 TIME:   0.132 TIME LEFT: 16.53W  GRAD.:    11.845 HEAT:-230.7508
 CYCLE:   123 TIME:   0.127 TIME LEFT: 16.53W  GRAD.:     4.206 HEAT:-230.9139
 CYCLE:   124 TIME:   0.128 TIME LEFT: 16.53W  GRAD.:    17.271 HEAT:-230.7992
 CYCLE:   125 TIME:   0.128 TIME LEFT: 16.53W  GRAD.:     2.673 HEAT:-230.9231
 CYCLE:   126 TIME:   0.132 TIME LEFT: 16.53W  GRAD.:     4.072 HEAT:-230.8521
 CYCLE:   127 TIME:   0.127 TIME LEFT: 16.53W  GRAD.:     2.964 HEAT:-230.8632
 CYCLE:   128 TIME:   0.137 TIME LEFT: 16.53W  GRAD.:     5.497 HEAT:-230.8556
 CYCLE:   129 TIME:   0.132 TIME LEFT: 16.53W  GRAD.:     4.853 HEAT:-230.8900
 CYCLE:   130 TIME:   0.127 TIME LEFT: 16.53W  GRAD.:     4.000 HEAT:-230.8964
 CYCLE:   131 TIME:   0.136 TIME LEFT: 16.53W  GRAD.:     7.843 HEAT:-231.1584
 CYCLE:   132 TIME:   0.132 TIME LEFT: 16.53W  GRAD.:     6.540 HEAT:-231.2259
 CYCLE:   133 TIME:   0.133 TIME LEFT: 16.53W  GRAD.:     7.024 HEAT:-231.3133
 CYCLE:   134 TIME:   0.139 TIME LEFT: 16.53W  GRAD.:     8.362 HEAT:-231.2577
 CYCLE:   135 TIME:   0.132 TIME LEFT: 16.53W  GRAD.:     6.756 HEAT:-231.3308
 CYCLE:   136 TIME:   0.132 TIME LEFT: 16.53W  GRAD.:     6.182 HEAT:-231.4239
 CYCLE:   137 TIME:   0.129 TIME LEFT: 16.53W  GRAD.:     4.023 HEAT:-231.4689
 CYCLE:   138 TIME:   0.133 TIME LEFT: 16.53W  GRAD.:     2.928 HEAT:-231.4661
 CYCLE:   139 TIME:   0.142 TIME LEFT: 16.53W  GRAD.:     5.331 HEAT:-231.4825
 CYCLE:   140 TIME:   0.128 TIME LEFT: 16.53W  GRAD.:     4.049 HEAT:-231.5261
 CYCLE:   141 TIME:   0.133 TIME LEFT: 16.53W  GRAD.:     4.043 HEAT:-231.5556
 CYCLE:   142 TIME:   0.133 TIME LEFT: 16.53W  GRAD.:     3.077 HEAT:-231.5827
 CYCLE:   143 TIME:   0.129 TIME LEFT: 16.53W  GRAD.:     2.584 HEAT:-231.6263
 CYCLE:   144 TIME:   0.157 TIME LEFT: 16.53W  GRAD.:     1.962 HEAT:-231.6438
 CYCLE:   145 TIME:   0.169 TIME LEFT: 16.53W  GRAD.:     2.204 HEAT:-231.6753
 CYCLE:   146 TIME:   0.138 TIME LEFT: 16.53W  GRAD.:     2.383 HEAT:-231.6976
 CYCLE:   147 TIME:   0.132 TIME LEFT: 16.53W  GRAD.:     1.974 HEAT:-231.7044
 CYCLE:   148 TIME:   0.135 TIME LEFT: 16.53W  GRAD.:     1.595 HEAT:-231.7757
 CYCLE:   149 TIME:   0.133 TIME LEFT: 16.53W  GRAD.:     1.109 HEAT:-231.7766
 CYCLE:   150 TIME:   0.142 TIME LEFT: 16.53W  GRAD.:     0.810 HEAT:-231.7641
 CYCLE:   151 TIME:   0.131 TIME LEFT: 16.53W  GRAD.:     0.623 HEAT:-231.7766
 CYCLE:   152 TIME:   0.132 TIME LEFT: 16.53W  GRAD.:     0.493 HEAT:-231.7773
 CYCLE:   153 TIME:   0.133 TIME LEFT: 16.53W  GRAD.:     0.698 HEAT:-231.7954
 CYCLE:   154 TIME:   0.131 TIME LEFT: 16.53W  GRAD.:     0.623 HEAT:-231.7837
 CYCLE:   155 TIME:   0.132 TIME LEFT: 16.53W  GRAD.:     0.566 HEAT:-231.7841
 CYCLE:   156 TIME:   0.131 TIME LEFT: 16.53W  GRAD.:     0.577 HEAT:-231.7849
 CYCLE:   157 TIME:   0.132 TIME LEFT: 16.53W  GRAD.:     0.775 HEAT:-231.7891
 CYCLE:   158 TIME:   0.132 TIME LEFT: 16.53W  GRAD.:     0.711 HEAT:-231.7735
 CYCLE:   159 TIME:   0.132 TIME LEFT: 16.53W  GRAD.:     0.657 HEAT:-231.7789
 CYCLE:   160 TIME:   0.132 TIME LEFT: 16.53W  GRAD.:     0.562 HEAT:-231.7900
 CYCLE:   161 TIME:   0.131 TIME LEFT: 16.53W  GRAD.:     0.480 HEAT:-231.7908
 CYCLE:   162 TIME:   0.127 TIME LEFT: 16.53W  GRAD.:     0.315 HEAT:-231.7899
 CYCLE:   163 TIME:   0.131 TIME LEFT: 16.53W  GRAD.:     0.345 HEAT:-231.7904
 CYCLE:   164 TIME:   0.130 TIME LEFT: 16.53W  GRAD.:     0.450 HEAT:-231.7995
 CYCLE:   165 TIME:   0.132 TIME LEFT: 16.53W  GRAD.:     0.488 HEAT:-231.7808
 CYCLE:   166 TIME:   0.137 TIME LEFT: 16.53W  GRAD.:     0.434 HEAT:-231.7835
 CYCLE:   167 TIME:   0.130 TIME LEFT: 16.53W  GRAD.:     0.440 HEAT:-231.7921
 CYCLE:   168 TIME:   0.132 TIME LEFT: 16.53W  GRAD.:     0.482 HEAT:-231.7823
 CYCLE:   169 TIME:   0.132 TIME LEFT: 16.53W  GRAD.:     0.410 HEAT:-231.7952
 CYCLE:   170 TIME:   0.127 TIME LEFT: 16.53W  GRAD.:     0.408 HEAT:-231.7954
 CYCLE:   171 TIME:   0.131 TIME LEFT: 16.53W  GRAD.:     0.501 HEAT:-231.7868
 CYCLE:   172 TIME:   0.137 TIME LEFT: 16.53W  GRAD.:     0.430 HEAT:-231.7760
 CYCLE:   173 TIME:   0.132 TIME LEFT: 16.53W  GRAD.:     0.314 HEAT:-231.7724
 CYCLE:   174 TIME:   0.132 TIME LEFT: 16.53W  GRAD.:     0.287 HEAT:-231.7727
 CYCLE:   175 TIME:   0.136 TIME LEFT: 16.53W  GRAD.:     0.273 HEAT:-231.7705
 CYCLE:   176 TIME:   0.134 TIME LEFT: 16.53W  GRAD.:     0.207 HEAT:-231.7710
 CYCLE:   177 TIME:   0.132 TIME LEFT: 16.53W  GRAD.:     0.198 HEAT:-231.7785
 CYCLE:   178 TIME:   0.131 TIME LEFT: 16.53W  GRAD.:     0.188 HEAT:-231.7760
 CYCLE:   179 TIME:   0.129 TIME LEFT: 16.53W  GRAD.:     0.209 HEAT:-231.7818
 CYCLE:   180 TIME:   0.132 TIME LEFT: 16.53W  GRAD.:     0.262 HEAT:-231.7729
 CYCLE:   181 TIME:   0.130 TIME LEFT: 16.53W  GRAD.:     0.144 HEAT:-231.7748

     RMS GRADIENT =  0.14358  IS LESS THAN CUTOFF =  0.15000



 -------------------------------------------------------------------------------
 PM6 T=31535702 DUMP=4320 XYZ EPS=78.40 RSOLV=1.30 MULLIK SYBYL +
 CHARGE=0 RELSCF=0.1 LET DDMIN=0.0 GNORM=0.15
 SJ000002349-1_T001S001I001C03: Geometry optimization step



     GEOMETRY OPTIMISED USING EIGENVECTOR FOLLOWING (EF).     
     SCF FIELD WAS ACHIEVED                                   


                               PM6     CALCULATION
                                                       MOPAC2009 (Version: 9.015L)
                                                       Tue Sep  6 16:26:16 2011




          FINAL HEAT OF FORMATION =       -231.77478 KCAL =    -969.74570 KJ
          VAN DER WAALS AREA      =        372.06 SQUARE ANGSTROMS


          TOTAL ENERGY            =      -4629.84244 EV
          ELECTRONIC ENERGY       =      -8600.76908 EV  POINT GROUP:     C1  
          CORE-CORE REPULSION     =       3970.92664 EV
          DIELECTRIC ENERGY       =         -1.41453 EV
          COSMO AREA              =        372.06 SQUARE ANGSTROMS
          COSMO VOLUME            =        459.20 CUBIC ANGSTROMS

          IONIZATION POTENTIAL    =          9.162256 EV
          HOMO LUMO ENERGIES (EV) =         -9.162 -0.962
          NO. OF FILLED LEVELS    =         74
          MOLECULAR WEIGHT        =        382.455

          MOLECULAR DIMENSIONS (Angstroms)

            Atom       Atom       Distance
            H    40    H    38    10.97742
            H    53    H    46    10.82663
            H    36    H    48     5.26658


          SCF CALCULATIONS        =        183
          COMPUTATION TIME        =         25.368 SECONDS




   ATOM   CHEMICAL          X               Y              Z
  NUMBER   SYMBOL      (ANGSTROMS)     (ANGSTROMS)    (ANGSTROMS)
 
     1       C          1.4120858  *   -5.579303  *    4.371106  *
     2       C          0.2423526  *   -4.626713  *    3.980258  *
     3       C          0.4548687  *   -4.043931  *    2.635769  *
     4       C          1.1854892  *   -4.577964  *    1.627225  *
     5       C          1.2405883  *   -3.937860  *    0.259066  *
     6       C          0.7777385  *   -2.503552  *    0.341897  *
     7       C          0.0679161  *   -2.042581  *    1.397037  *
     8       C         -0.5134266  *   -0.690888  *    1.557103  *
     9       C         -0.7032261  *    0.001937  *    0.174671  *
    10       C          0.5883771  *   -0.174240  *   -0.661626  *
    11       C          1.0918273  *   -1.589197  *   -0.767249  *
    12       O          1.7745372  *   -1.933115  *   -1.724761  *
    13       O         -0.1959936  *   -2.819627  *    2.526232  *
    14       C          1.9463842  *   -5.804463  *    1.872826  *
    15       O          2.7430805  *   -6.255897  *    1.045402  *
    16       C          1.7261770  *   -6.516217  *    3.175660  *
    17       H         -0.7273577  *   -5.182169  *    3.994144  *
    18       H          0.1099731  *   -3.839150  *    4.756915  *
    19       H          2.3119918  *   -3.942680  *   -0.097154  *
    20       H         -1.4799659  *   -0.723184  *    2.110316  *
    21       H          0.1487747  *   -0.073110  *    2.211199  *
    22       H          0.4377093  *    0.253766  *   -1.676715  *
    23       H          1.4060473  *    0.449479  *   -0.227809  *
    24       H          2.6006968  *   -7.157727  *    3.422091  *
    25       H          0.8909973  *   -7.244823  *    3.037534  *
    26       C          0.4023252  *   -4.726508  *   -0.727288  *
    27       C          1.0087552  *   -5.677414  *   -1.579553  *
    28       C          0.2911215  *   -6.368728  *   -2.564916  *
    29       C         -1.0799978  *   -6.106962  *   -2.660210  *
    30       H          0.7882397  *   -7.082186  *   -3.216929  *
    31       C         -1.7337152  *   -5.202356  *   -1.806987  *
    32       C         -0.9775467  *   -4.524386  *   -0.851183  *
    33       H         -2.8043934  *   -5.038212  *   -1.901015  *
    34       H         -1.4777425  *   -3.814232  *   -0.185463  *
    35       O          2.3375768  *   -5.983208  *   -1.511001  *
    36       H          2.7588344  *   -5.678884  *   -0.614568  *
    37       O         -1.8746288  *   -6.723918  *   -3.585957  *
    38       H         -1.3624036  *   -7.361914  *   -4.171674  *
    39       C          2.6547117  *   -4.753362  *    4.727052  *
    40       H          2.4682770  *   -4.090796  *    5.581752  *
    41       H          3.4990213  *   -5.396800  *    5.005191  *
    42       H          2.9893073  *   -4.121751  *    3.896964  *
    43       C          0.9793847  *   -6.424029  *    5.574778  *
    44       H          0.7300000  *   -5.796726  *    6.439930  *
    45       H          0.0976433  *   -7.039145  *    5.357586  *
    46       H          1.7767951  *   -7.106456  *    5.895377  *
    47       C         -1.8942995  *   -0.624577  *   -0.562670  *
    48       H         -2.8227956  *   -0.528178  *    0.013999  *
    49       H         -2.0702532  *   -0.134740  *   -1.528895  *
    50       H         -1.7460961  *   -1.690741  *   -0.763473  *
    51       C         -0.9585696  *    1.496512  *    0.404888  *
    52       H         -0.1315435  *    1.983567  *    0.935546  *
    53       H         -1.0916207  *    2.032393  *   -0.543440  *
    54       H         -1.8667991  *    1.664530  *    0.997005  *

           Empirical Formula: C23 H26 O5  =    54 atoms



      MOLECULAR POINT GROUP   :   C1  


                  EIGENVALUES  
 -32.28142 -31.94477 -31.78512 -31.12420 -30.96033 -30.57109 -30.22760 -29.85097
 -28.83348 -27.86744 -26.63157 -26.39293 -26.08118 -25.54985 -25.15550 -24.53948
 -24.47224 -24.06280 -23.40065 -22.44287 -22.00686 -21.70395 -21.20524 -20.38859
 -19.75119 -19.35338 -18.48529 -17.86932 -17.61388 -17.30155 -17.01401 -16.86839
 -16.66279 -16.29261 -16.04423 -15.91791 -15.83765 -15.54189 -15.49522 -15.32282
 -15.19692 -15.13258 -14.90730 -14.82207 -14.69071 -14.51871 -14.38503 -14.35618
 -14.23324 -14.07036 -13.75317 -13.57646 -13.47024 -13.40881 -13.27655 -13.11215
 -13.03651 -12.96768 -12.87858 -12.83773 -12.34579 -12.31420 -12.29477 -12.10159
 -12.02074 -11.99496 -11.89982 -11.80207 -10.99673 -10.81991 -10.63194  -9.93667
  -9.80128  -9.16226  -0.96225  -0.36766  -0.11658   0.03166   0.51329   0.95118
   1.11562   1.90607   2.04068   2.24749   2.33623   2.55344   2.79908   2.87199
   3.12476   3.15845   3.27695   3.38964   3.46039   3.53538   3.61546   3.67306
   3.75372   3.84610   3.88829   3.94146   3.98565   4.07813   4.14646   4.19734
   4.25448   4.31740   4.43595   4.55907   4.60424   4.72825   4.78490   5.09308
   5.10975   5.12848   5.19796   5.25199   5.25903   5.31121   5.53320   5.62816
   5.73071   5.77114   5.77650   5.77931   5.79217   5.80060   5.80951   5.83594
   5.87318   5.90600   6.03591   6.04763   6.10270   6.15782   6.74984   6.75701
   6.85461   6.86370


              NET ATOMIC CHARGES AND DIPOLE CONTRIBUTIONS

  ATOM NO.   TYPE          CHARGE      No. of ELECS.   s-Pop       p-Pop       
    1          C           0.329122        3.6709     1.06719     2.60368
    2          C          -0.460951        4.4610     1.11105     3.34991
    3          C           0.467623        3.5324     1.10726     2.42512
    4          C          -0.502086        4.5021     1.11682     3.38527
    5          C           0.141887        3.8581     1.05205     2.80606
    6          C          -0.479294        4.4793     1.11778     3.36151
    7          C           0.445309        3.5547     1.10761     2.44708
    8          C          -0.454908        4.4549     1.11012     3.34479
    9          C           0.326530        3.6735     1.06663     2.60684
   10          C          -0.546017        4.5460     1.12388     3.42214
   11          C           0.672229        3.3278     1.09022     2.23755
   12          O          -0.628426        6.6284     1.85214     4.77628
   13          O          -0.363861        6.3639     1.83596     4.52790
   14          C           0.672831        3.3272     1.09287     2.23430
   15          O          -0.641596        6.6416     1.85155     4.79004
   16          C          -0.538973        4.5390     1.12266     3.41631
   17          H           0.215397        0.7846     0.78460
   18          H           0.211740        0.7883     0.78826
   19          H           0.141346        0.8587     0.85865
   20          H           0.210863        0.7891     0.78914
   21          H           0.213244        0.7868     0.78676
   22          H           0.207093        0.7929     0.79291
   23          H           0.214183        0.7858     0.78582
   24          H           0.208681        0.7913     0.79132
   25          H           0.218289        0.7817     0.78171
   26          C          -0.314300        4.3143     1.10231     3.21199
   27          C           0.438395        3.5616     1.07609     2.48551
   28          C          -0.539282        4.5393     1.11026     3.42902
   29          C           0.435436        3.5646     1.07463     2.48994
   30          H           0.212181        0.7878     0.78782
   31          C          -0.432433        4.4324     1.10476     3.32767
   32          C           0.060207        3.9398     1.10393     2.83586
   33          H           0.195779        0.8042     0.80422
   34          H           0.151730        0.8483     0.84827
   35          O          -0.552317        6.5523     1.81623     4.73609
   36          H           0.382403        0.6176     0.61760
   37          O          -0.517163        6.5172     1.80612     4.71104
   38          H           0.374522        0.6255     0.62548
   39          C          -0.562158        4.5622     1.09668     3.46548
   40          H           0.173870        0.8261     0.82613
   41          H           0.174350        0.8257     0.82565
   42          H           0.166823        0.8332     0.83318
   43          C          -0.555517        4.5555     1.09580     3.45972
   44          H           0.172912        0.8271     0.82709
   45          H           0.171196        0.8288     0.82880
   46          H           0.173570        0.8264     0.82643
   47          C          -0.556872        4.5569     1.09633     3.46054
   48          H           0.172693        0.8273     0.82731
   49          H           0.173752        0.8262     0.82625
   50          H           0.160272        0.8397     0.83973
   51          C          -0.555557        4.5556     1.09592     3.45964
   52          H           0.170041        0.8300     0.82996
   53          H           0.173262        0.8267     0.82674
   54          H           0.171953        0.8280     0.82805
 DIPOLE           X         Y         Z       TOTAL
 POINT-CHG.    -6.170     5.566    12.175    14.740
 HYBRID         0.368    -0.462    -0.251     0.642
 SUM           -5.803     5.104    11.924    14.209


          CARTESIAN COORDINATES 

    NO.       ATOM               X         Y         Z

     1         C                  1.4121   -5.5793    4.3711
     2         C                  0.2424   -4.6267    3.9803
     3         C                  0.4549   -4.0439    2.6358
     4         C                  1.1855   -4.5780    1.6272
     5         C                  1.2406   -3.9379    0.2591
     6         C                  0.7777   -2.5036    0.3419
     7         C                  0.0679   -2.0426    1.3970
     8         C                 -0.5134   -0.6909    1.5571
     9         C                 -0.7032    0.0019    0.1747
    10         C                  0.5884   -0.1742   -0.6616
    11         C                  1.0918   -1.5892   -0.7672
    12         O                  1.7745   -1.9331   -1.7248
    13         O                 -0.1960   -2.8196    2.5262
    14         C                  1.9464   -5.8045    1.8728
    15         O                  2.7431   -6.2559    1.0454
    16         C                  1.7262   -6.5162    3.1757
    17         H                 -0.7274   -5.1822    3.9941
    18         H                  0.1100   -3.8392    4.7569
    19         H                  2.3120   -3.9427   -0.0972
    20         H                 -1.4800   -0.7232    2.1103
    21         H                  0.1488   -0.0731    2.2112
    22         H                  0.4377    0.2538   -1.6767
    23         H                  1.4060    0.4495   -0.2278
    24         H                  2.6007   -7.1577    3.4221
    25         H                  0.8910   -7.2448    3.0375
    26         C                  0.4023   -4.7265   -0.7273
    27         C                  1.0088   -5.6774   -1.5796
    28         C                  0.2911   -6.3687   -2.5649
    29         C                 -1.0800   -6.1070   -2.6602
    30         H                  0.7882   -7.0822   -3.2169
    31         C                 -1.7337   -5.2024   -1.8070
    32         C                 -0.9775   -4.5244   -0.8512
    33         H                 -2.8044   -5.0382   -1.9010
    34         H                 -1.4777   -3.8142   -0.1855
    35         O                  2.3376   -5.9832   -1.5110
    36         H                  2.7588   -5.6789   -0.6146
    37         O                 -1.8746   -6.7239   -3.5860
    38         H                 -1.3624   -7.3619   -4.1717
    39         C                  2.6547   -4.7534    4.7271
    40         H                  2.4683   -4.0908    5.5818
    41         H                  3.4990   -5.3968    5.0052
    42         H                  2.9893   -4.1218    3.8970
    43         C                  0.9794   -6.4240    5.5748
    44         H                  0.7300   -5.7967    6.4399
    45         H                  0.0976   -7.0391    5.3576
    46         H                  1.7768   -7.1065    5.8954
    47         C                 -1.8943   -0.6246   -0.5627
    48         H                 -2.8228   -0.5282    0.0140
    49         H                 -2.0703   -0.1347   -1.5289
    50         H                 -1.7461   -1.6907   -0.7635
    51         C                 -0.9586    1.4965    0.4049
    52         H                 -0.1315    1.9836    0.9355
    53         H                 -1.0916    2.0324   -0.5434
    54         H                 -1.8668    1.6645    0.9970


          ATOMIC ORBITAL ELECTRON POPULATIONS

   1.06719   0.86680   0.86292   0.87397   1.11105   1.15203   1.15770   1.04018
   1.10726   0.76893   0.74449   0.91170   1.11682   1.19486   1.12788   1.06253
   1.05205   1.04339   0.87250   0.89017   1.11778   1.20886   1.07087   1.08178
   1.10761   0.81556   0.84299   0.78853   1.11012   1.19331   1.01922   1.13226
   1.06663   0.86955   0.89502   0.84227   1.12388   1.13607   1.08723   1.19884
   1.09022   0.65019   0.83521   0.75215   1.85214   1.47955   1.82994   1.46679
   1.83596   1.65367   1.38073   1.49350   1.09287   0.67420   0.76375   0.79635
   1.85155   1.48207   1.71915   1.58882   1.12266   1.22656   1.13356   1.05619
   0.78460   0.78826   0.85865   0.78914   0.78676   0.79291   0.78582   0.79132
   0.78171   1.10231   1.01318   1.09842   1.10039   1.07609   0.74790   0.85932
   0.87829   1.11026   1.03832   1.21027   1.18043   1.07463   0.85685   0.83285
   0.80024   0.78782   1.10476   1.11658   1.11978   1.09131   1.10393   0.95279
   0.94204   0.94103   0.80422   0.84827   1.81623   1.34860   1.81629   1.57119
   0.61760   1.80612   1.52808   1.63948   1.54348   0.62548   1.09668   1.11340
   1.16097   1.19111   0.82613   0.82565   0.83318   1.09580   1.18819   1.15739
   1.11414   0.82709   0.82880   0.82643   1.09633   1.12074   1.16751   1.17229
   0.82731   0.82625   0.83973   1.09592   1.19463   1.06770   1.19730   0.82996
   0.82674   0.82805

           MULLIKEN POPULATION ANALYSIS



        MULLIKEN POPULATIONS AND CHARGES

      NO.  ATOM   POPULATION      CHARGE
        1    C     3.636287      0.363713
        2    C     4.580581     -0.580581
        3    C     3.507592      0.492408
        4    C     4.545755     -0.545755
        5    C     3.851376      0.148624
        6    C     4.521541     -0.521541
        7    C     3.531858      0.468142
        8    C     4.573365     -0.573365
        9    C     3.638455      0.361545
       10    C     4.672170     -0.672170
       11    C     3.280165      0.719835
       12    O     6.654338     -0.654338
       13    O     6.403236     -0.403236
       14    C     3.281927      0.718073
       15    O     6.671020     -0.671020
       16    C     4.665155     -0.665155
       17    H     0.730906      0.269094
       18    H     0.732775      0.267225
       19    H     0.819103      0.180897
       20    H     0.734254      0.265746
       21    H     0.733295      0.266705
       22    H     0.738495      0.261505
       23    H     0.733086      0.266914
       24    H     0.736213      0.263787
       25    H     0.728241      0.271759
       26    C     4.339746     -0.339746
       27    C     3.533213      0.466787
       28    C     4.617496     -0.617496
       29    C     3.540451      0.459549
       30    H     0.724083      0.275917
       31    C     4.501190     -0.501190
       32    C     3.964600      0.035400
       33    H     0.744492      0.255508
       34    H     0.801643      0.198357
       35    O     6.598988     -0.598988
       36    H     0.583925      0.416075
       37    O     6.566732     -0.566732
       38    H     0.592965      0.407035
       39    C     4.707697     -0.707697
       40    H     0.778340      0.221660
       41    H     0.777790      0.222210
       42    H     0.786380      0.213620
       43    C     4.701834     -0.701834
       44    H     0.779492      0.220508
       45    H     0.781325      0.218675
       46    H     0.778739      0.221261
       47    C     4.700365     -0.700365
       48    H     0.779722      0.220278
       49    H     0.778531      0.221469
       50    H     0.794876      0.205124
       51    C     4.701720     -0.701720
       52    H     0.782772      0.217228
       53    H     0.779095      0.220905
       54    H     0.780611      0.219389



 TOTAL CPU TIME:            25.40 SECONDS

 == MOPAC DONE ==
 *******************************************************************************
 ** Site#:  958            For non-commercial use only         Version 9.015L **
 *******************************************************************************
 ** Cite this work as: MOPAC2009, James J. P. Stewart, Stewart Computational  **
 ** Chemistry, Version 9.015L web: HTTP://OpenMOPAC.net                       **
 *******************************************************************************
 **                                                                           **
 **                                MOPAC2009                                  **
 **                                                                           **
 *******************************************************************************

                            PM6 CALCULATION RESULTS


 *******************************************************************************
 *  CALCULATION DONE:                                Tue Sep  6 16:26:16 2011  *
 *  PM6      - The PM6 Hamiltonian to be used
 *  GEO-OK   - OVERRIDE INTERATOMIC DISTANCE CHECK
 *
 *
 *
 *                 CHARGE ON SYSTEM =     0
 *
 *
 *
 *  EPS= 78.400
 *  RSOLV=  1.300
 *  OLDGEO   - PREVIOUS GEOMETRY TO BE USED
 *  T=       - A TIME OF 172800.0 SECONDS REQUESTED
 *  DUMP=N   - RESTART FILE WRITTEN EVERY  4320.000 SECONDS
 *  RELSCF   - DEFAULT SCF CRITERION MULTIPLIED BY   0.100    
 *             (DEFAULT SCFCRT= 0.00010)
 *  THERMO   - THERMODYNAMIC QUANTITIES TO BE CALCULATED
 *******************************************************************************
 PM6 DUMP=4320 RELSCF=0.1 THERMO EPS=78.40 RSOLV=1.30 +
 OLDGEO GEO-OK CHARGE=0
 SJ000002349-1_T001S001I001C03: Free energy calculation

   ATOM   CHEMICAL          X               Y              Z
  NUMBER   SYMBOL      (ANGSTROMS)     (ANGSTROMS)    (ANGSTROMS)
 
     1       C          1.4120858  *   -5.579303  *    4.371106  *
     2       C          0.2423526  *   -4.626713  *    3.980258  *
     3       C          0.4548687  *   -4.043931  *    2.635769  *
     4       C          1.1854892  *   -4.577964  *    1.627225  *
     5       C          1.2405883  *   -3.937860  *    0.259066  *
     6       C          0.7777385  *   -2.503552  *    0.341897  *
     7       C          0.0679161  *   -2.042581  *    1.397037  *
     8       C         -0.5134266  *   -0.690888  *    1.557103  *
     9       C         -0.7032261  *    0.001937  *    0.174671  *
    10       C          0.5883771  *   -0.174240  *   -0.661626  *
    11       C          1.0918273  *   -1.589197  *   -0.767249  *
    12       O          1.7745372  *   -1.933115  *   -1.724761  *
    13       O         -0.1959936  *   -2.819627  *    2.526232  *
    14       C          1.9463842  *   -5.804463  *    1.872826  *
    15       O          2.7430805  *   -6.255897  *    1.045402  *
    16       C          1.7261770  *   -6.516217  *    3.175660  *
    17       H         -0.7273577  *   -5.182169  *    3.994144  *
    18       H          0.1099731  *   -3.839150  *    4.756915  *
    19       H          2.3119918  *   -3.942680  *   -0.097154  *
    20       H         -1.4799659  *   -0.723184  *    2.110316  *
    21       H          0.1487747  *   -0.073110  *    2.211199  *
    22       H          0.4377093  *    0.253766  *   -1.676715  *
    23       H          1.4060473  *    0.449479  *   -0.227809  *
    24       H          2.6006968  *   -7.157727  *    3.422091  *
    25       H          0.8909973  *   -7.244823  *    3.037534  *
    26       C          0.4023252  *   -4.726508  *   -0.727288  *
    27       C          1.0087552  *   -5.677414  *   -1.579553  *
    28       C          0.2911215  *   -6.368728  *   -2.564916  *
    29       C         -1.0799978  *   -6.106962  *   -2.660210  *
    30       H          0.7882397  *   -7.082186  *   -3.216929  *
    31       C         -1.7337152  *   -5.202356  *   -1.806987  *
    32       C         -0.9775467  *   -4.524386  *   -0.851183  *
    33       H         -2.8043934  *   -5.038212  *   -1.901015  *
    34       H         -1.4777425  *   -3.814232  *   -0.185463  *
    35       O          2.3375768  *   -5.983208  *   -1.511001  *
    36       H          2.7588344  *   -5.678884  *   -0.614568  *
    37       O         -1.8746288  *   -6.723918  *   -3.585957  *
    38       H         -1.3624036  *   -7.361914  *   -4.171674  *
    39       C          2.6547117  *   -4.753362  *    4.727052  *
    40       H          2.4682770  *   -4.090796  *    5.581752  *
    41       H          3.4990213  *   -5.396800  *    5.005191  *
    42       H          2.9893073  *   -4.121751  *    3.896964  *
    43       C          0.9793847  *   -6.424029  *    5.574778  *
    44       H          0.7300000  *   -5.796726  *    6.439930  *
    45       H          0.0976433  *   -7.039145  *    5.357586  *
    46       H          1.7767951  *   -7.106456  *    5.895377  *
    47       C         -1.8942995  *   -0.624577  *   -0.562670  *
    48       H         -2.8227956  *   -0.528178  *    0.013999  *
    49       H         -2.0702532  *   -0.134740  *   -1.528895  *
    50       H         -1.7460961  *   -1.690741  *   -0.763473  *
    51       C         -0.9585696  *    1.496512  *    0.404888  *
    52       H         -0.1315435  *    1.983567  *    0.935546  *
    53       H         -1.0916207  *    2.032393  *   -0.543440  *
    54       H         -1.8667991  *    1.664530  *    0.997005  *
 


          CARTESIAN COORDINATES 

    NO.       ATOM         X         Y         Z

     1         C        1.4121   -5.5793    4.3711
     2         C        0.2424   -4.6267    3.9803
     3         C        0.4549   -4.0439    2.6358
     4         C        1.1855   -4.5780    1.6272
     5         C        1.2406   -3.9379    0.2591
     6         C        0.7777   -2.5036    0.3419
     7         C        0.0679   -2.0426    1.3970
     8         C       -0.5134   -0.6909    1.5571
     9         C       -0.7032    0.0019    0.1747
    10         C        0.5884   -0.1742   -0.6616
    11         C        1.0918   -1.5892   -0.7672
    12         O        1.7745   -1.9331   -1.7248
    13         O       -0.1960   -2.8196    2.5262
    14         C        1.9464   -5.8045    1.8728
    15         O        2.7431   -6.2559    1.0454
    16         C        1.7262   -6.5162    3.1757
    17         H       -0.7274   -5.1822    3.9941
    18         H        0.1100   -3.8392    4.7569
    19         H        2.3120   -3.9427   -0.0972
    20         H       -1.4800   -0.7232    2.1103
    21         H        0.1488   -0.0731    2.2112
    22         H        0.4377    0.2538   -1.6767
    23         H        1.4060    0.4495   -0.2278
    24         H        2.6007   -7.1577    3.4221
    25         H        0.8910   -7.2448    3.0375
    26         C        0.4023   -4.7265   -0.7273
    27         C        1.0088   -5.6774   -1.5796
    28         C        0.2911   -6.3687   -2.5649
    29         C       -1.0800   -6.1070   -2.6602
    30         H        0.7882   -7.0822   -3.2169
    31         C       -1.7337   -5.2024   -1.8070
    32         C       -0.9775   -4.5244   -0.8512
    33         H       -2.8044   -5.0382   -1.9010
    34         H       -1.4777   -3.8142   -0.1855
    35         O        2.3376   -5.9832   -1.5110
    36         H        2.7588   -5.6789   -0.6146
    37         O       -1.8746   -6.7239   -3.5860
    38         H       -1.3624   -7.3619   -4.1717
    39         C        2.6547   -4.7534    4.7271
    40         H        2.4683   -4.0908    5.5818
    41         H        3.4990   -5.3968    5.0052
    42         H        2.9893   -4.1218    3.8970
    43         C        0.9794   -6.4240    5.5748
    44         H        0.7300   -5.7967    6.4399
    45         H        0.0976   -7.0391    5.3576
    46         H        1.7768   -7.1065    5.8954
    47         C       -1.8943   -0.6246   -0.5627
    48         H       -2.8228   -0.5282    0.0140
    49         H       -2.0703   -0.1347   -1.5289
    50         H       -1.7461   -1.6907   -0.7635
    51         C       -0.9586    1.4965    0.4049
    52         H       -0.1315    1.9836    0.9355
    53         H       -1.0916    2.0324   -0.5434
    54         H       -1.8668    1.6645    0.9970

 General Reference for PM6:
 "Optimization of Parameters for Semiempirical Methods V: Modification of NDDO Approximations
 and Application to 70 Elements", J. J. P. Stewart, J. Mol. Mod., 13, 1173-1213 (2007)
 URL: http://www.springerlink.com/content/ar33482301010477/fulltext.pdf

           Empirical Formula: C23 H26 O5  =    54 atoms



      MOLECULAR POINT GROUP   :   C1  


      RHF CALCULATION, NO. OF DOUBLY OCCUPIED LEVELS =   74

  SCF CRITERION =    0.1000E-04


          HEAT OF FORMATION =    -231.774739 KCALS/MOLE


          INTERNAL COORDINATE DERIVATIVES

   NUMBER  ATOM       BOND         ANGLE      DIHEDRAL

     1       C
     2       C      0.000085
     3       C     -0.028772    -0.014747
     4       C     -0.035476     0.074599     0.005796
     5       C     -0.084466    -0.040547    -0.041527
     6       C      0.015941     0.015731    -0.065917
     7       C     -0.057630    -0.005740    -0.004472
     8       C     -0.035590     0.042074    -0.078012
     9       C      0.047678    -0.009029    -0.047751
    10       C      0.032976     0.004712     0.020036
    11       C     -0.031910     0.007535     0.026971
    12       O      0.028974     0.076272    -0.023923
    13       O     -0.027701    -0.146715     0.185406
    14       C     -0.054968     0.101598     0.073904
    15       O     -0.035824     0.043056     0.022032
    16       C      0.025038    -0.121479     0.071743
    17       H      0.064616     0.054705    -0.070729
    18       H     -0.031518     0.030519    -0.013125
    19       H      0.022792    -0.020242    -0.056874
    20       H      0.047895    -0.035377     0.060036
    21       H      0.020419     0.027893    -0.010509
    22       H      0.090779     0.004429     0.033923
    23       H     -0.072747     0.001167    -0.004141
    24       H     -0.015314     0.009823    -0.002285
    25       H     -0.019558     0.003773    -0.033513
    26       C      0.025115    -0.000560     0.013918
    27       C     -0.008419    -0.011032    -0.041689
    28       C     -0.049291    -0.059526     0.002882
    29       C      0.096422    -0.010744     0.135592
    30       H     -0.000844    -0.076697    -0.160722
    31       C     -0.018834     0.036138     0.049383
    32       C      0.027731    -0.048053     0.075545
    33       H      0.103346    -0.021174     0.176481
    34       H     -0.051151     0.002587    -0.077551
    35       O     -0.014471     0.026918     0.009380
    36       H      0.043255    -0.004476    -0.014273
    37       O     -0.029152     0.147542    -0.033110
    38       H      0.039103    -0.056649    -0.004107
    39       C     -0.031504     0.154072    -0.343151
    40       H      0.014977    -0.190091     0.236354
    41       H     -0.026631     0.005027    -0.056403
    42       H      0.006487     0.005739    -0.032533
    43       C      0.015080    -0.009462     0.006973
    44       H     -0.012945     0.001115     0.000361
    45       H     -0.020401     0.048617     0.039511
    46       H      0.021422    -0.024558    -0.001787
    47       C     -0.011982     0.002947    -0.033528
    48       H      0.002614    -0.015700     0.021137
    49       H     -0.028028    -0.008544    -0.051468
    50       H      0.013923     0.016999     0.008456
    51       C      0.008410    -0.021548    -0.014162
    52       H      0.030123     0.025751     0.015579
    53       H      0.025447     0.013684     0.031077
    54       H     -0.049958    -0.023355    -0.022936


          GRADIENT NORM =   0.78786


          TIME FOR SCF CALCULATION =    0.24

          TIME FOR DERIVATIVES     =    0.08

          MOLECULAR WEIGHT =  382.46



          ROTATIONAL CONSTANTS IN CM(-1)

          A =    0.00650160   B =    0.00555045   C =    0.00364586



           PRINCIPAL MOMENTS OF INERTIA IN UNITS OF 10**(-40)*GRAM-CM**2

          A =     4305.5231   B =     5043.3373   C =     7677.9705


          ORIENTATION OF MOLECULE IN FORCE CALCULATION

    NO.       ATOM         X         Y         Z

     1          C      -2.6861   -3.2092   -0.7127
     2          C      -1.1278   -3.2092   -0.7127
     3          C      -0.5938   -1.8281   -0.7127
     4          C      -1.2157   -0.7188   -0.2450
     5          C      -0.5227    0.6238   -0.2023
     6          C       0.6807    0.6119   -1.1133
     7          C       1.2307   -0.5426   -1.5542
     8          C       2.4532   -0.6901   -2.3754
     9          C       3.3659    0.5660   -2.2476
    10          C       2.4984    1.8399   -2.4005
    11          C       1.2821    1.8933   -1.5148
    12          O       0.7996    2.9720   -1.1909
    13          O       0.6706   -1.7939   -1.2911
    14          C      -2.5982   -0.8239    0.2255
    15          O      -3.2647    0.1714    0.5229
    16          C      -3.1948   -2.1958    0.3456
    17          H      -0.7429   -3.7551    0.1834
    18          H      -0.7418   -3.8026   -1.5728
    19          H      -1.2405    1.4109   -0.5765
    20          H       3.0202   -1.6103   -2.1049
    21          H       2.1697   -0.8547   -3.4434
    22          H       3.1278    2.7422   -2.2390
    23          H       2.1571    1.9385   -3.4586
    24          H      -4.3051   -2.1426    0.3100
    25          H      -2.9786   -2.5809    1.3715
    26          C      -0.1282    0.9697    1.2197
    27          C      -0.9509    1.8095    2.0047
    28          C      -0.5876    2.2262    3.2925
    29          C       0.6255    1.7494    3.8011
    30          H      -1.2334    2.8860    3.8660
    31          C       1.4551    0.8792    3.0744
    32          C       1.0622    0.5030    1.7902
    33          H       2.3827    0.5166    3.5106
    34          H       1.7048   -0.1708    1.2151
    35          O      -2.1524    2.2827    1.5617
    36          H      -2.5074    1.7405    0.7532
    37          O       1.0770    2.0935    5.0448
    38          H       0.4494    2.7159    5.5256
    39          C      -3.2032   -2.8161   -2.1023
    40          H      -2.8727   -3.5250   -2.8719
    41          H      -4.3001   -2.8044   -2.1346
    42          H      -2.8601   -1.8226   -2.4109
    43          C      -3.1796   -4.6133   -0.3456
    44          H      -2.8259   -5.3659   -1.0616
    45          H      -2.8393   -4.9286    0.6483
    46          H      -4.2757   -4.6669   -0.3424
    47          C       4.0619    0.5670   -0.8800
    48          H       4.6731   -0.3329   -0.7368
    49          H       4.7357    1.4268   -0.7738
    50          H       3.3493    0.6109   -0.0498
    51          C       4.4134    0.5283   -3.3671
    52          H       3.9573    0.5208   -4.3644
    53          H       5.0787    1.3999   -3.3247
    54          H       5.0493   -0.3629   -3.2953


    FIRST DERIVATIVES WILL BE USED IN THE CALCULATION OF SECOND DERIVATIVES

          ESTIMATED TIME TO COMPLETE CALCULATION =      105.28 SECONDS

    FOR POINT-GROUP C1   THERE ARE   1 UNIQUE SYMMETRY FUNCTIONS.

 STEP:   1 TIME =     0.24 SECS, INTEGRAL =      0.24 TIME LEFT: 172799.44
 STEP:   2 TIME =     0.24 SECS, INTEGRAL =      0.47 TIME LEFT: 172799.20
 STEP:   3 TIME =     0.23 SECS, INTEGRAL =      0.70 TIME LEFT: 172798.97
 STEP:   4 TIME =     0.23 SECS, INTEGRAL =      0.93 TIME LEFT: 172798.75
 STEP:   5 TIME =     0.24 SECS, INTEGRAL =      1.17 TIME LEFT: 172798.51
 STEP:   6 TIME =     0.23 SECS, INTEGRAL =      1.40 TIME LEFT: 172798.28
 STEP:   7 TIME =     0.23 SECS, INTEGRAL =      1.63 TIME LEFT: 172798.04
 STEP:   8 TIME =     0.24 SECS, INTEGRAL =      1.87 TIME LEFT: 172797.80
 STEP:   9 TIME =     0.23 SECS, INTEGRAL =      2.11 TIME LEFT: 172797.57
 STEP:  10 TIME =     0.24 SECS, INTEGRAL =      2.35 TIME LEFT: 172797.32
 STEP:  11 TIME =     0.23 SECS, INTEGRAL =      2.58 TIME LEFT: 172797.09
 STEP:  12 TIME =     0.23 SECS, INTEGRAL =      2.82 TIME LEFT: 172796.86
 STEP:  13 TIME =     0.23 SECS, INTEGRAL =      3.05 TIME LEFT: 172796.63
 STEP:  14 TIME =     0.24 SECS, INTEGRAL =      3.28 TIME LEFT: 172796.39
 STEP:  15 TIME =     0.24 SECS, INTEGRAL =      3.52 TIME LEFT: 172796.15
 STEP:  16 TIME =     0.23 SECS, INTEGRAL =      3.75 TIME LEFT: 172795.92
 STEP:  17 TIME =     0.24 SECS, INTEGRAL =      3.99 TIME LEFT: 172795.68
 STEP:  18 TIME =     0.23 SECS, INTEGRAL =      4.23 TIME LEFT: 172795.45
 STEP:  19 TIME =     0.25 SECS, INTEGRAL =      4.48 TIME LEFT: 172795.20
 STEP:  20 TIME =     0.23 SECS, INTEGRAL =      4.71 TIME LEFT: 172794.96
 STEP:  21 TIME =     0.24 SECS, INTEGRAL =      4.95 TIME LEFT: 172794.72
 STEP:  22 TIME =     0.24 SECS, INTEGRAL =      5.20 TIME LEFT: 172794.48
 STEP:  23 TIME =     0.23 SECS, INTEGRAL =      5.42 TIME LEFT: 172794.25
 STEP:  24 TIME =     0.23 SECS, INTEGRAL =      5.66 TIME LEFT: 172794.02
 STEP:  25 TIME =     0.23 SECS, INTEGRAL =      5.89 TIME LEFT: 172793.79
 STEP:  26 TIME =     0.23 SECS, INTEGRAL =      6.12 TIME LEFT: 172793.56
 STEP:  27 TIME =     0.23 SECS, INTEGRAL =      6.34 TIME LEFT: 172793.33
 STEP:  28 TIME =     0.23 SECS, INTEGRAL =      6.58 TIME LEFT: 172793.10
 STEP:  29 TIME =     0.23 SECS, INTEGRAL =      6.80 TIME LEFT: 172792.87
 STEP:  30 TIME =     0.23 SECS, INTEGRAL =      7.03 TIME LEFT: 172792.64
 STEP:  31 TIME =     0.24 SECS, INTEGRAL =      7.27 TIME LEFT: 172792.40
 STEP:  32 TIME =     0.24 SECS, INTEGRAL =      7.52 TIME LEFT: 172792.16
 STEP:  33 TIME =     0.24 SECS, INTEGRAL =      7.76 TIME LEFT: 172791.91
 STEP:  34 TIME =     0.23 SECS, INTEGRAL =      7.99 TIME LEFT: 172791.69
 STEP:  35 TIME =     0.23 SECS, INTEGRAL =      8.22 TIME LEFT: 172791.46
 STEP:  36 TIME =     0.23 SECS, INTEGRAL =      8.44 TIME LEFT: 172791.23
 STEP:  37 TIME =     0.23 SECS, INTEGRAL =      8.68 TIME LEFT: 172791.00
 STEP:  38 TIME =     0.24 SECS, INTEGRAL =      8.91 TIME LEFT: 172790.76
 STEP:  39 TIME =     0.23 SECS, INTEGRAL =      9.15 TIME LEFT: 172790.53
 STEP:  40 TIME =     0.24 SECS, INTEGRAL =      9.39 TIME LEFT: 172790.28
 STEP:  41 TIME =     0.23 SECS, INTEGRAL =      9.62 TIME LEFT: 172790.05
 STEP:  42 TIME =     0.24 SECS, INTEGRAL =      9.86 TIME LEFT: 172789.82
 STEP:  43 TIME =     0.23 SECS, INTEGRAL =     10.09 TIME LEFT: 172789.59
 STEP:  44 TIME =     0.23 SECS, INTEGRAL =     10.31 TIME LEFT: 172789.36
 STEP:  45 TIME =     0.23 SECS, INTEGRAL =     10.54 TIME LEFT: 172789.13
 STEP:  46 TIME =     0.23 SECS, INTEGRAL =     10.77 TIME LEFT: 172788.90
 STEP:  47 TIME =     0.23 SECS, INTEGRAL =     11.00 TIME LEFT: 172788.68
 STEP:  48 TIME =     0.23 SECS, INTEGRAL =     11.23 TIME LEFT: 172788.45
 STEP:  49 TIME =     0.22 SECS, INTEGRAL =     11.45 TIME LEFT: 172788.23
 STEP:  50 TIME =     0.22 SECS, INTEGRAL =     11.67 TIME LEFT: 172788.01
 STEP:  51 TIME =     0.22 SECS, INTEGRAL =     11.89 TIME LEFT: 172787.78
 STEP:  52 TIME =     0.22 SECS, INTEGRAL =     12.11 TIME LEFT: 172787.56
 STEP:  53 TIME =     0.22 SECS, INTEGRAL =     12.33 TIME LEFT: 172787.34
 STEP:  54 TIME =     0.22 SECS, INTEGRAL =     12.55 TIME LEFT: 172787.12
 STEP:  55 TIME =     0.22 SECS, INTEGRAL =     12.77 TIME LEFT: 172786.91
 STEP:  56 TIME =     0.22 SECS, INTEGRAL =     12.99 TIME LEFT: 172786.69
 STEP:  57 TIME =     0.22 SECS, INTEGRAL =     13.20 TIME LEFT: 172786.47
 STEP:  58 TIME =     0.22 SECS, INTEGRAL =     13.42 TIME LEFT: 172786.25
 STEP:  59 TIME =     0.22 SECS, INTEGRAL =     13.64 TIME LEFT: 172786.03
 STEP:  60 TIME =     0.22 SECS, INTEGRAL =     13.86 TIME LEFT: 172785.81
 STEP:  61 TIME =     0.22 SECS, INTEGRAL =     14.09 TIME LEFT: 172785.59
 STEP:  62 TIME =     0.22 SECS, INTEGRAL =     14.31 TIME LEFT: 172785.37
 STEP:  63 TIME =     0.22 SECS, INTEGRAL =     14.53 TIME LEFT: 172785.15
 STEP:  64 TIME =     0.22 SECS, INTEGRAL =     14.75 TIME LEFT: 172784.93
 STEP:  65 TIME =     0.22 SECS, INTEGRAL =     14.96 TIME LEFT: 172784.71
 STEP:  66 TIME =     0.22 SECS, INTEGRAL =     15.18 TIME LEFT: 172784.49
 STEP:  67 TIME =     0.22 SECS, INTEGRAL =     15.41 TIME LEFT: 172784.27
 STEP:  68 TIME =     0.22 SECS, INTEGRAL =     15.63 TIME LEFT: 172784.04
 STEP:  69 TIME =     0.22 SECS, INTEGRAL =     15.85 TIME LEFT: 172783.83
 STEP:  70 TIME =     0.22 SECS, INTEGRAL =     16.07 TIME LEFT: 172783.61
 STEP:  71 TIME =     0.22 SECS, INTEGRAL =     16.29 TIME LEFT: 172783.39
 STEP:  72 TIME =     0.22 SECS, INTEGRAL =     16.51 TIME LEFT: 172783.17
 STEP:  73 TIME =     0.22 SECS, INTEGRAL =     16.73 TIME LEFT: 172782.94
 STEP:  74 TIME =     0.22 SECS, INTEGRAL =     16.95 TIME LEFT: 172782.73
 STEP:  75 TIME =     0.22 SECS, INTEGRAL =     17.17 TIME LEFT: 172782.51
 STEP:  76 TIME =     0.25 SECS, INTEGRAL =     17.42 TIME LEFT: 172782.25
 STEP:  77 TIME =     0.23 SECS, INTEGRAL =     17.65 TIME LEFT: 172782.02
 STEP:  78 TIME =     0.23 SECS, INTEGRAL =     17.89 TIME LEFT: 172781.79
 STEP:  79 TIME =     0.24 SECS, INTEGRAL =     18.12 TIME LEFT: 172781.55
 STEP:  80 TIME =     0.24 SECS, INTEGRAL =     18.36 TIME LEFT: 172781.31
 STEP:  81 TIME =     0.25 SECS, INTEGRAL =     18.61 TIME LEFT: 172781.06
 STEP:  82 TIME =     0.24 SECS, INTEGRAL =     18.85 TIME LEFT: 172780.82
 STEP:  83 TIME =     0.23 SECS, INTEGRAL =     19.08 TIME LEFT: 172780.59
 STEP:  84 TIME =     0.24 SECS, INTEGRAL =     19.32 TIME LEFT: 172780.35
 STEP:  85 TIME =     0.24 SECS, INTEGRAL =     19.56 TIME LEFT: 172780.11
 STEP:  86 TIME =     0.23 SECS, INTEGRAL =     19.80 TIME LEFT: 172779.88
 STEP:  87 TIME =     0.23 SECS, INTEGRAL =     20.03 TIME LEFT: 172779.65
 STEP:  88 TIME =     0.22 SECS, INTEGRAL =     20.25 TIME LEFT: 172779.43
 STEP:  89 TIME =     0.22 SECS, INTEGRAL =     20.47 TIME LEFT: 172779.21
 STEP:  90 TIME =     0.22 SECS, INTEGRAL =     20.69 TIME LEFT: 172778.98
 STEP:  91 TIME =     0.23 SECS, INTEGRAL =     20.92 TIME LEFT: 172778.76
 STEP:  92 TIME =     0.23 SECS, INTEGRAL =     21.15 TIME LEFT: 172778.53
 STEP:  93 TIME =     0.25 SECS, INTEGRAL =     21.40 TIME LEFT: 172778.28
 STEP:  94 TIME =     0.24 SECS, INTEGRAL =     21.64 TIME LEFT: 172778.04
 STEP:  95 TIME =     0.23 SECS, INTEGRAL =     21.87 TIME LEFT: 172777.81
 STEP:  96 TIME =     0.24 SECS, INTEGRAL =     22.11 TIME LEFT: 172777.57
 STEP:  97 TIME =     0.22 SECS, INTEGRAL =     22.33 TIME LEFT: 172777.34
 STEP:  98 TIME =     0.22 SECS, INTEGRAL =     22.55 TIME LEFT: 172777.13
 STEP:  99 TIME =     0.22 SECS, INTEGRAL =     22.77 TIME LEFT: 172776.91
 STEP: 100 TIME =     0.22 SECS, INTEGRAL =     22.98 TIME LEFT: 172776.69
 STEP: 101 TIME =     0.22 SECS, INTEGRAL =     23.21 TIME LEFT: 172776.47
 STEP: 102 TIME =     0.22 SECS, INTEGRAL =     23.43 TIME LEFT: 172776.24
 STEP: 103 TIME =     0.23 SECS, INTEGRAL =     23.66 TIME LEFT: 172776.01
 STEP: 104 TIME =     0.23 SECS, INTEGRAL =     23.90 TIME LEFT: 172775.78
 STEP: 105 TIME =     0.23 SECS, INTEGRAL =     24.13 TIME LEFT: 172775.55
 STEP: 106 TIME =     0.23 SECS, INTEGRAL =     24.36 TIME LEFT: 172775.32
 STEP: 107 TIME =     0.23 SECS, INTEGRAL =     24.58 TIME LEFT: 172775.09
 STEP: 108 TIME =     0.22 SECS, INTEGRAL =     24.81 TIME LEFT: 172774.87
 STEP: 109 TIME =     0.22 SECS, INTEGRAL =     25.03 TIME LEFT: 172774.64
 STEP: 110 TIME =     0.22 SECS, INTEGRAL =     25.26 TIME LEFT: 172774.42
 STEP: 111 TIME =     0.24 SECS, INTEGRAL =     25.49 TIME LEFT: 172774.18
 STEP: 112 TIME =     0.22 SECS, INTEGRAL =     25.72 TIME LEFT: 172773.96
 STEP: 113 TIME =     0.22 SECS, INTEGRAL =     25.94 TIME LEFT: 172773.73
 STEP: 114 TIME =     0.22 SECS, INTEGRAL =     26.16 TIME LEFT: 172773.52
 STEP: 115 TIME =     0.24 SECS, INTEGRAL =     26.40 TIME LEFT: 172773.28
 STEP: 116 TIME =     0.23 SECS, INTEGRAL =     26.62 TIME LEFT: 172773.05
 STEP: 117 TIME =     0.24 SECS, INTEGRAL =     26.87 TIME LEFT: 172772.81
 STEP: 118 TIME =     0.22 SECS, INTEGRAL =     27.09 TIME LEFT: 172772.59
 STEP: 119 TIME =     0.21 SECS, INTEGRAL =     27.30 TIME LEFT: 172772.37
 STEP: 120 TIME =     0.22 SECS, INTEGRAL =     27.52 TIME LEFT: 172772.16
 STEP: 121 TIME =     0.22 SECS, INTEGRAL =     27.74 TIME LEFT: 172771.94
 STEP: 122 TIME =     0.22 SECS, INTEGRAL =     27.96 TIME LEFT: 172771.72
 STEP: 123 TIME =     0.22 SECS, INTEGRAL =     28.18 TIME LEFT: 172771.49
 STEP: 124 TIME =     0.22 SECS, INTEGRAL =     28.40 TIME LEFT: 172771.27
 STEP: 125 TIME =     0.23 SECS, INTEGRAL =     28.63 TIME LEFT: 172771.05
 STEP: 126 TIME =     0.22 SECS, INTEGRAL =     28.84 TIME LEFT: 172770.83
 STEP: 127 TIME =     0.27 SECS, INTEGRAL =     29.11 TIME LEFT: 172770.56
 STEP: 128 TIME =     0.23 SECS, INTEGRAL =     29.34 TIME LEFT: 172770.33
 STEP: 129 TIME =     0.23 SECS, INTEGRAL =     29.57 TIME LEFT: 172770.11
 STEP: 130 TIME =     0.22 SECS, INTEGRAL =     29.79 TIME LEFT: 172769.89
 STEP: 131 TIME =     0.22 SECS, INTEGRAL =     30.00 TIME LEFT: 172769.67
 STEP: 132 TIME =     0.21 SECS, INTEGRAL =     30.22 TIME LEFT: 172769.46
 STEP: 133 TIME =     0.22 SECS, INTEGRAL =     30.44 TIME LEFT: 172769.24
 STEP: 134 TIME =     0.22 SECS, INTEGRAL =     30.65 TIME LEFT: 172769.02
 STEP: 135 TIME =     0.22 SECS, INTEGRAL =     30.87 TIME LEFT: 172768.80
 STEP: 136 TIME =     0.22 SECS, INTEGRAL =     31.09 TIME LEFT: 172768.59
 STEP: 137 TIME =     0.22 SECS, INTEGRAL =     31.31 TIME LEFT: 172768.37
 STEP: 138 TIME =     0.22 SECS, INTEGRAL =     31.53 TIME LEFT: 172768.15
 STEP: 139 TIME =     0.23 SECS, INTEGRAL =     31.76 TIME LEFT: 172767.92
 STEP: 140 TIME =     0.23 SECS, INTEGRAL =     31.98 TIME LEFT: 172767.69
 STEP: 141 TIME =     0.22 SECS, INTEGRAL =     32.21 TIME LEFT: 172767.47
 STEP: 142 TIME =     0.23 SECS, INTEGRAL =     32.44 TIME LEFT: 172767.24
 STEP: 143 TIME =     0.24 SECS, INTEGRAL =     32.68 TIME LEFT: 172767.00
 STEP: 144 TIME =     0.24 SECS, INTEGRAL =     32.92 TIME LEFT: 172766.76
 STEP: 145 TIME =     0.22 SECS, INTEGRAL =     33.14 TIME LEFT: 172766.54
 STEP: 146 TIME =     0.22 SECS, INTEGRAL =     33.35 TIME LEFT: 172766.32
 STEP: 147 TIME =     0.22 SECS, INTEGRAL =     33.57 TIME LEFT: 172766.10
 STEP: 148 TIME =     0.22 SECS, INTEGRAL =     33.79 TIME LEFT: 172765.88
 STEP: 149 TIME =     0.23 SECS, INTEGRAL =     34.02 TIME LEFT: 172765.65
 STEP: 150 TIME =     0.24 SECS, INTEGRAL =     34.26 TIME LEFT: 172765.41
 STEP: 151 TIME =     0.27 SECS, INTEGRAL =     34.53 TIME LEFT: 172765.15
 STEP: 152 TIME =     0.23 SECS, INTEGRAL =     34.76 TIME LEFT: 172764.91
 STEP: 153 TIME =     0.23 SECS, INTEGRAL =     34.99 TIME LEFT: 172764.69
 STEP: 154 TIME =     0.22 SECS, INTEGRAL =     35.21 TIME LEFT: 172764.46
 STEP: 155 TIME =     0.22 SECS, INTEGRAL =     35.43 TIME LEFT: 172764.25
 STEP: 156 TIME =     0.22 SECS, INTEGRAL =     35.65 TIME LEFT: 172764.03
 STEP: 157 TIME =     0.22 SECS, INTEGRAL =     35.86 TIME LEFT: 172763.81
 STEP: 158 TIME =     0.22 SECS, INTEGRAL =     36.08 TIME LEFT: 172763.60
 STEP: 159 TIME =     0.22 SECS, INTEGRAL =     36.30 TIME LEFT: 172763.37
 STEP: 160 TIME =     0.22 SECS, INTEGRAL =     36.52 TIME LEFT: 172763.16
 STEP: 161 TIME =     0.22 SECS, INTEGRAL =     36.73 TIME LEFT: 172762.94
 STEP: 162 TIME =     0.22 SECS, INTEGRAL =     36.96 TIME LEFT: 172762.72

(To convert to Hartree/Bohr^2, multiply by (10^(-21) x N x a0^2)/(4.184 x 627.51) = 0.0642)


           FORCE MATRIX IN MILLIDYNES/ANGSTROM


                  C  1       C  2       C  3       C  4       C  5       C  6
 ------------------------------------------------------------------------------
     C    1  13.178960
     C    2   2.677287  11.904583
     C    3   0.828029   3.830639  15.850156
     C    4   0.124150   0.849625   7.566171  15.966940
     C    5   0.021477   0.110158   0.941554   3.504867  12.907389
     C    6   0.018566   0.029889   0.402405   0.815484   3.606704  16.078232
     C    7   0.036575   0.136465   1.676027   0.402008   0.928392   7.738257
     C    8   0.010102   0.031047   0.141426   0.032209   0.114798   0.853002
     C    9   0.004025   0.010739   0.039658   0.019104   0.020182   0.107243
     C   10   0.004897   0.008714   0.045628   0.040839   0.045077   0.748000
     C   11   0.020958   0.039548   0.360803   0.177289   0.692451   3.526546
     O   12   0.009176   0.017097   0.139755   0.073088   0.064547   1.719103
     O   13   0.076417   0.987301   3.656709   1.619588   0.263148   1.529936
     C   14   0.820358   0.187074   1.865172   3.648196   0.715051   0.173531
     O   15   0.121454   0.098486   0.450373   1.765600   0.082422   0.075586
     C   16   2.824961   0.727229   0.076074   0.759170   0.048689   0.038629
     H   17   0.596260   3.191890   0.734017   0.059124   0.019539   0.012006
     H   18   0.591093   3.268962   0.717339   0.062674   0.015081   0.011705
     H   19   0.004087   0.014303   0.043515   0.644660   3.128290   0.642834
     H   20   0.002579   0.006582   0.021918   0.011531   0.016076   0.061796
     H   21   0.002421   0.005070   0.024389   0.013430   0.020044   0.059045
     H   22   0.000704   0.001425   0.007654   0.005809   0.006606   0.051685
     H   23   0.001274   0.002218   0.011095   0.007095   0.004666   0.041328
     H   24   0.605127   0.047144   0.027177   0.051419   0.007435   0.006034
     H   25   0.609756   0.019608   0.040303   0.043855   0.006793   0.007437
     C   26   0.009800   0.029764   0.098880   0.769736   3.444694   0.739964
     C   27   0.009170   0.008999   0.017625   0.064768   0.744658   0.063962
     C   28   0.003090   0.005354   0.014315   0.020779   0.066514   0.028091
     C   29   0.007949   0.015445   0.039625   0.058446   0.097493   0.049387
     H   30   0.001106   0.001888   0.005686   0.007104   0.011899   0.006999
     C   31   0.005766   0.014842   0.041783   0.057975   0.136243   0.048859
     C   32   0.006905   0.015383   0.044524   0.055269   0.793902   0.048004
     H   33   0.000998   0.002296   0.004686   0.005648   0.010800   0.006532
     H   34   0.001115   0.002096   0.008623   0.009814   0.035145   0.025405
     O   35   0.011837   0.011025   0.035135   0.067889   0.118791   0.037970
     H   36   0.021940   0.019322   0.071983   0.097876   0.116646   0.028965
     O   37   0.005632   0.011922   0.029431   0.044266   0.078749   0.036289
     H   38   0.001013   0.002353   0.006506   0.009103   0.016104   0.008182
     C   39   3.211166   0.735272   0.056833   0.058587   0.011674   0.011869
     H   40   0.620454   0.013542   0.014504   0.006466   0.002143   0.002438
     H   41   0.608907   0.049322   0.009424   0.005642   0.001294   0.001630
     H   42   0.610397   0.009472   0.037829   0.009814   0.003284   0.003494


                  C  1       C  2       C  3       C  4       C  5       C  6
 ------------------------------------------------------------------------------
     C   43   3.241913   0.711787   0.058366   0.033676   0.009292   0.011409
     H   44   0.621142   0.012755   0.008082   0.005226   0.001426   0.001888
     H   45   0.611481   0.014060   0.007425   0.005738   0.001632   0.001975
     H   46   0.620880   0.042960   0.012266   0.005289   0.001394   0.001550
     C   47   0.002274   0.004772   0.022401   0.013341   0.009901   0.064270
     H   48   0.000617   0.001222   0.004586   0.002999   0.002054   0.008660
     H   49   0.000599   0.000680   0.003115   0.002271   0.001434   0.007438
     H   50   0.000750   0.001729   0.007322   0.004714   0.004169   0.012952
     C   51   0.002659   0.005639   0.022753   0.011496   0.007400   0.029516
     H   52   0.000543   0.000671   0.003499   0.002021   0.001017   0.004676
     H   53   0.000310   0.000726   0.002469   0.001436   0.001239   0.005382
     H   54   0.000657   0.001018   0.003378   0.001799   0.001147   0.005122


                  C  7       C  8       C  9       C 10       C 11       O 12
 ------------------------------------------------------------------------------
     C    7  15.920059
     C    8   3.852497  11.901562
     C    9   0.814968   2.700219  13.227646
     C   10   0.076970   0.734381   2.879385  11.798853
     C   11   1.793732   0.211944   0.803526   3.272756  16.177444
     O   12   0.406823   0.104047   0.120324   1.326382  10.243978  12.252090
     O   13   3.601963   0.974817   0.072218   0.074703   0.596118   0.235972
     C   14   0.355152   0.037861   0.020630   0.033828   0.173774   0.074073
     O   15   0.146408   0.017203   0.010230   0.015765   0.077122   0.032053
     C   16   0.042762   0.008683   0.004722   0.008824   0.034755   0.015139
     H   17   0.021396   0.004980   0.002095   0.003197   0.013429   0.006133
     H   18   0.023416   0.007011   0.002557   0.003116   0.013243   0.005971
     H   19   0.043355   0.015336   0.005077   0.008478   0.054130   0.022655
     H   20   0.714399   3.254340   0.588295   0.047564   0.058024   0.027326
     H   21   0.735216   3.188325   0.597414   0.023790   0.074589   0.036082
     H   22   0.022860   0.044052   0.608754   3.294725   0.691628   0.058807
     H   23   0.035606   0.019140   0.603578   3.209853   0.731797   0.071459
     H   24   0.009351   0.001521   0.000792   0.001857   0.006378   0.002920
     H   25   0.012415   0.002149   0.001355   0.001996   0.008065   0.003717
     C   26   0.096589   0.023718   0.007618   0.009413   0.041221   0.039578
     C   27   0.045776   0.016553   0.006841   0.011024   0.029030   0.026467
     C   28   0.018032   0.008181   0.003355   0.004723   0.015812   0.011585
     C   29   0.040710   0.017078   0.006507   0.013425   0.041027   0.026380
     H   30   0.005673   0.002403   0.000934   0.001618   0.004910   0.003599
     C   31   0.047306   0.016942   0.007611   0.012601   0.033368   0.023341
     C   32   0.052869   0.016552   0.007637   0.011646   0.037168   0.021559
     H   33   0.005067   0.002142   0.001370   0.001394   0.004928   0.003927
     H   34   0.025017   0.005968   0.006521   0.004128   0.016914   0.007669
     O   35   0.032983   0.011570   0.004700   0.008494   0.025296   0.019459
     H   36   0.033274   0.006342   0.002795   0.005293   0.019100   0.011723
     O   37   0.027162   0.012462   0.005089   0.009797   0.030193   0.018642
     H   38   0.005955   0.002667   0.001142   0.002572   0.006728   0.004003
     C   39   0.018440   0.004046   0.001976   0.003446   0.013623   0.005983
     H   40   0.003970   0.001131   0.000615   0.000640   0.002823   0.001359
     H   41   0.002288   0.000582   0.000402   0.000516   0.001611   0.000802
     H   42   0.005419   0.001334   0.000525   0.001113   0.003953   0.001633
     C   43   0.021531   0.004772   0.002208   0.003088   0.013307   0.006131
     H   44   0.003490   0.001115   0.000639   0.000456   0.002368   0.001380
     H   45   0.003517   0.000903   0.000668   0.000863   0.002527   0.001334
     H   46   0.002458   0.000651   0.000447   0.000501   0.001788   0.000912
     C   47   0.053510   0.733847   3.202858   0.741153   0.092167   0.054042
     H   48   0.015463   0.015068   0.620809   0.046221   0.016884   0.009909
     H   49   0.010305   0.046225   0.622071   0.013555   0.022394   0.013218
     H   50   0.042503   0.007913   0.607912   0.008242   0.047311   0.015667
     C   51   0.053034   0.704125   3.234965   0.720990   0.077364   0.060181
     H   52   0.005830   0.017660   0.609129   0.013159   0.012893   0.010829


                  C  7       C  8       C  9       C 10       C 11       O 12
 ------------------------------------------------------------------------------
     H   53   0.011945   0.042794   0.619597   0.012947   0.015034   0.011383
     H   54   0.006525   0.014794   0.619148   0.043335   0.015542   0.007318


                  O 13       C 14       O 15       C 16       H 17       H 18
 ------------------------------------------------------------------------------
     O   13   9.007705
     C   14   0.652670  16.016263
     O   15   0.270620   9.610828  11.614722
     C   16   0.082379   3.363509   1.337347  11.839125
     H   17   0.029058   0.067886   0.034248   0.022578   4.071733
     H   18   0.023357   0.055379   0.027687   0.045267   0.412598   4.131463
     H   19   0.011580   0.051821   0.012001   0.008145   0.002834   0.002626
     H   20   0.022449   0.012478   0.006258   0.003049   0.001347   0.001571
     H   21   0.039557   0.014634   0.007226   0.003515   0.001432   0.001435
     H   22   0.014785   0.005546   0.002609   0.001293   0.000518   0.000505
     H   23   0.019683   0.007338   0.003439   0.002308   0.000743   0.000796
     H   24   0.018474   0.710914   0.064368   3.293113   0.005263   0.008060
     H   25   0.024097   0.731464   0.080513   3.213711   0.014320   0.005398
     C   26   0.084128   0.046514   0.053499   0.013012   0.005705   0.006006
     C   27   0.027507   0.138112   0.171285   0.021280   0.002671   0.002502
     C   28   0.011626   0.029633   0.047485   0.008066   0.001796   0.001642
     C   29   0.023559   0.036634   0.029661   0.012863   0.004524   0.003717
     H   30   0.003377   0.005190   0.008935   0.002545   0.000538   0.000561
     C   31   0.024981   0.030878   0.021984   0.012163   0.004320   0.003026
     C   32   0.025190   0.031621   0.024532   0.012900   0.004463   0.003411
     H   33   0.003334   0.005207   0.005173   0.001892   0.000562   0.000570
     H   34   0.010337   0.005516   0.004467   0.001509   0.000424   0.000517
     O   35   0.029641   0.190631   0.417161   0.037711   0.003444   0.003081
     H   36   0.051164   0.414096   0.380115   0.075451   0.006202   0.005006
     O   37   0.015087   0.025380   0.018982   0.009966   0.003717   0.002826
     H   38   0.003194   0.005617   0.004825   0.002423   0.000647   0.000580
     C   39   0.033138   0.089696   0.054269   0.742961   0.044051   0.015350
     H   40   0.007561   0.015177   0.009802   0.044153   0.004121   0.022056
     H   41   0.005123   0.020126   0.010865   0.011835   0.007724   0.004046
     H   42   0.010485   0.045620   0.016478   0.009113   0.003651   0.009287
[...]
 T-DIPOLE    0.9085        C 51 --  H 52          +36.8% ( 62.5%)    96.7%
 TRAVEL      0.1313        C 47 --  H 48           +8.3% ( 29.7%)    99.2%
 RED. MASS   0.3829        C 47 --  H 50           +4.3% ( 21.4%)    94.2%
 EFF. MASS   1.4592

 VIBRATION  143  143A       ATOM PAIR        ENERGY CONTRIBUTION    RADIAL
 FREQ.      2684.31        C 39 --  H 40          +55.2% ( 76.6%)    99.0%
 T-DIPOLE    1.0472        C 39 --  H 41          +32.8% ( 59.1%)    95.1%
 TRAVEL      0.1312        C 43 --  H 46           +3.9% ( 20.4%)    98.3%
 RED. MASS   0.4318        C 39 --  H 42           +3.8% ( 20.1%)    50.1%
 EFF. MASS   1.4585

 VIBRATION  144  144A       ATOM PAIR        ENERGY CONTRIBUTION    RADIAL
 FREQ.      2686.07        C 47 --  H 50          +61.4% ( 80.8%)    99.5%
 T-DIPOLE    0.8805        C 47 --  H 49          +20.5% ( 46.7%)    89.9%
 TRAVEL      0.1308        C 47 --  H 48          +10.6% ( 33.5%)    78.6%
 RED. MASS   0.4490        C 51 --  H 52           +4.1% ( 20.8%)    99.1%
 EFF. MASS   1.4684

 VIBRATION  145  145A       ATOM PAIR        ENERGY CONTRIBUTION    RADIAL
 FREQ.      2687.00        C 39 --  H 42          +61.4% ( 80.8%)    99.2%
 T-DIPOLE    0.8455        C 39 --  H 41          +28.5% ( 55.0%)    93.5%
 TRAVEL      0.1309        C 39 --  H 40           +6.7% ( 26.8%)    66.3%
 RED. MASS   0.4805        C 43 --  H 45           +1.6% ( 12.9%)    99.2%
 EFF. MASS   1.4642

 VIBRATION  146  146A       ATOM PAIR        ENERGY CONTRIBUTION    RADIAL
 FREQ.      2717.81        C  2 --  H 18          +51.2% ( 70.3%)    97.9%
 T-DIPOLE    1.1694        C  2 --  H 17          +32.8% ( 56.3%)    95.1%
 TRAVEL      0.1406        C 16 --  H 24           +7.3% ( 26.6%)    98.2%
 RED. MASS   0.3693        C 16 --  H 25           +4.3% ( 20.3%)    95.5%
 EFF. MASS   1.2546

 VIBRATION  147  147A       ATOM PAIR        ENERGY CONTRIBUTION    RADIAL
 FREQ.      2721.50        C  8 --  H 20          +47.8% ( 67.9%)    97.4%
 T-DIPOLE    1.6376        C  8 --  H 21          +39.7% ( 61.9%)    96.1%
 TRAVEL      0.1407        C 10 --  H 22           +4.6% ( 21.1%)    98.3%
 RED. MASS   0.3831        C 10 --  H 23           +2.4% ( 15.3%)    95.5%
 EFF. MASS   1.2517

 VIBRATION  148  148A       ATOM PAIR        ENERGY CONTRIBUTION    RADIAL
 FREQ.      2726.72        C 16 --  H 24          +51.2% ( 70.3%)    98.0%
 T-DIPOLE    1.1294        C 16 --  H 25          +32.5% ( 55.9%)    94.8%
 TRAVEL      0.1399        C  2 --  H 18           +7.4% ( 26.7%)    97.6%
 RED. MASS   0.3676        C  2 --  H 17           +5.2% ( 22.3%)    94.6%
 EFF. MASS   1.2640

 VIBRATION  149  149A       ATOM PAIR        ENERGY CONTRIBUTION    RADIAL
 FREQ.      2728.99        C 32 --  H 34          +90.6% ( 96.2%)   100.0%
 T-DIPOLE    0.9469        C 31 --  H 33           +6.0% ( 24.8%)    99.9%
 TRAVEL      0.1334        C 31 --  C 32           +1.0% ( 10.1%)     9.4%
 RED. MASS   0.8013        C 26 --  C 32           +1.0% ( 10.1%)    19.4%
 EFF. MASS   1.3895

 VIBRATION  150  150A       ATOM PAIR        ENERGY CONTRIBUTION    RADIAL
 FREQ.      2733.05        C 10 --  H 22          +55.7% ( 73.3%)    98.0%
 T-DIPOLE    0.9569        C 10 --  H 23          +34.3% ( 57.5%)    94.8%
 TRAVEL      0.1398        C  8 --  H 20           +3.8% ( 19.1%)    97.0%
 RED. MASS   0.4205        C  8 --  H 21           +3.5% ( 18.5%)    95.6%
 EFF. MASS   1.2617

 VIBRATION  151  151A       ATOM PAIR        ENERGY CONTRIBUTION    RADIAL
 FREQ.      2746.17        C 28 --  H 30          +65.0% ( 81.5%)   100.0%
 T-DIPOLE    1.8304        C 31 --  H 33          +32.4% ( 57.5%)   100.0%
 TRAVEL      0.1336        C 27 --  C 28           +0.7% (  8.3%)    24.8%
 RED. MASS   0.5119        C 28 --  C 29           +0.7% (  8.2%)    18.0%
 EFF. MASS   1.3756

 VIBRATION  152  152A       ATOM PAIR        ENERGY CONTRIBUTION    RADIAL
 FREQ.      2754.33        C 31 --  H 33          +59.5% ( 77.8%)   100.0%
 T-DIPOLE    0.8944        C 28 --  H 30          +31.9% ( 57.0%)   100.0%
 TRAVEL      0.1310        C 32 --  H 34           +6.1% ( 24.8%)    99.8%
 RED. MASS   0.4473        C 31 --  C 32           +0.8% (  9.1%)    56.1%
 EFF. MASS   1.4263

 VIBRATION  153  153A       ATOM PAIR        ENERGY CONTRIBUTION    RADIAL
 FREQ.      2785.91        C 47 --  H 49          +17.4% ( 40.1%)    96.0%
 T-DIPOLE    0.6241        C 47 --  H 50          +17.0% ( 39.6%)    95.6%
 TRAVEL      0.1458        C 47 --  H 48          +16.8% ( 39.4%)    95.8%
 RED. MASS   0.1629        C 51 --  H 52          +16.3% ( 38.8%)    95.7%
 EFF. MASS   1.1381        C 51 --  H 53          +16.2% ( 38.7%)    95.8%
                           C 51 --  H 54          +15.8% ( 38.2%)    95.6%

 VIBRATION  154  154A       ATOM PAIR        ENERGY CONTRIBUTION    RADIAL
 FREQ.      2787.04        C 43 --  H 46          +27.5% ( 50.4%)    95.9%
 T-DIPOLE    0.6801        C 43 --  H 45          +25.5% ( 48.5%)    95.4%
 TRAVEL      0.1457        C 43 --  H 44          +25.4% ( 48.4%)    95.5%
 RED. MASS   0.2171        C 39 --  H 42           +7.2% ( 25.8%)    95.9%
 EFF. MASS   1.1393

 VIBRATION  155  155A       ATOM PAIR        ENERGY CONTRIBUTION    RADIAL
 FREQ.      2789.86        C 51 --  H 53          +17.5% ( 40.2%)    95.5%
 T-DIPOLE    0.5727        C 47 --  H 49          +16.9% ( 39.4%)    95.7%
 TRAVEL      0.1451        C 51 --  H 52          +16.8% ( 39.3%)    95.5%
 RED. MASS   0.1613        C 51 --  H 54          +16.7% ( 39.2%)    95.2%
 EFF. MASS   1.1480        C 47 --  H 48          +16.1% ( 38.6%)    95.4%
                           C 47 --  H 50          +15.0% ( 37.2%)    95.1%

 VIBRATION  156  156A       ATOM PAIR        ENERGY CONTRIBUTION    RADIAL
 FREQ.      2792.28        C 39 --  H 40          +26.5% ( 49.5%)    95.6%
 T-DIPOLE    0.5198        C 39 --  H 41          +26.5% ( 49.4%)    95.5%
 TRAVEL      0.1451        C 39 --  H 42          +25.4% ( 48.5%)    95.5%
 RED. MASS   0.2166        C 43 --  H 46           +7.4% ( 26.2%)    95.5%
 EFF. MASS   1.1470

 SYMMETRY NUMBER FOR POINT-GROUP C1  =  1


          SYSTEM IS A GROUND STATE


                                                                                                                                                                                                                                                 
 SJ000002349-1_T001S001I001C03: Free energy calculation                                                                                                                                                                                          


          MOLECULE IS NOT LINEAR

          THERE ARE  156 GENUINE VIBRATIONS IN THIS SYSTEM
          THIS THERMODYNAMICS CALCULATION IS LIMITED TO
          MOLECULES WHICH HAVE NO INTERNAL ROTATIONS




                    CALCULATED THERMODYNAMIC PROPERTIES
                                          *
   TEMP. (K)   PARTITION FUNCTION   H.O.F.    ENTHALPY  HEAT CAPACITY ENTROPY
                                   KCAL/MOL   CAL/MOLE    CAL/K/MOL  CAL/K/MOL


 298.00  VIB.     0.3449D+10                 14790.9814    99.7406    93.2760
         ROT.     0.1457D+08                   888.2813     2.9808    35.7582
         INT.     0.5024D+17                 15679.2627   102.7214   129.0342
         TRA.     0.7231D+28                  1480.4688     4.9680    43.7144
         TOT.                     -231.775   17159.7315   107.6894   172.7485

 200.00  VIB.     0.9513D+06                  6624.5013    67.0701    60.4776
         ROT.     0.8009D+07                   596.1620     2.9808    34.5695
         INT.     0.7619D+13                  7220.6632    70.0509    95.0471
         TRA.     0.3976D+28                   993.6033     4.9680    41.7332
         TOT.                     -240.720    8214.2665    75.0189   136.7804

 210.00  VIB.     0.2190D+07                  7311.5945    70.3507    63.8293
         ROT.     0.8617D+07                   625.9700     2.9808    34.7149
         INT.     0.1887D+14                  7937.5646    73.3315    98.5443
         TRA.     0.4278D+28                  1043.2834     4.9680    41.9756
         TOT.                     -239.954    8980.8480    78.2995   140.5199

 220.00  VIB.     0.5046D+07                  8031.5630    73.6456    67.1780
         ROT.     0.9239D+07                   655.7781     2.9808    34.8536
         INT.     0.4663D+14                  8687.3412    76.6264   102.0316
         TRA.     0.4587D+28                  1092.9636     4.9680    42.2067
         TOT.                     -239.154    9780.3047    81.5944   144.2384

 230.00  VIB.     0.1164D+08                  8784.5600    76.9565    70.5247
         ROT.     0.9876D+07                   685.5862     2.9808    34.9861
         INT.     0.1149D+15                  9470.1463    79.9373   105.5108
         TRA.     0.4903D+28                  1142.6437     4.9680    42.4276
         TOT.                     -238.322   10612.7900    84.9053   147.9384

 240.00  VIB.     0.2684D+08                  9570.7464    80.2833    73.8702
         ROT.     0.1053D+08                   715.3943     2.9808    35.1130
         INT.     0.2826D+15                 10286.1408    83.2641   108.9831
         TRA.     0.5226D+28                  1192.3239     4.9680    42.6390
         TOT.                     -237.456   11478.4647    88.2321   151.6221

 250.00  VIB.     0.6195D+08                 10390.2736    83.6243    77.2152
         ROT.     0.1119D+08                   745.2024     2.9808    35.2346
         INT.     0.6933D+15                 11135.4760    86.6051   112.4498
         TRA.     0.5556D+28                  1242.0041     4.9680    42.8418
         TOT.                     -236.557   12377.4801    91.5731   155.2916

 260.00  VIB.     0.1430D+09                 11243.2696    86.9765    80.5602
         ROT.     0.1187D+08                   775.0105     2.9808    35.3516
         INT.     0.1698D+16                 12018.2801    89.9573   115.9118
         TRA.     0.5893D+28                  1291.6842     4.9680    43.0367
         TOT.                     -235.625   13309.9643    94.9253   158.9485

 270.00  VIB.     0.3304D+09                 12129.8277    90.3360    83.9057
         ROT.     0.1256D+08                   804.8186     2.9808    35.4640
         INT.     0.4150D+16                 12934.6463    93.3168   119.3698
         TRA.     0.6236D+28                  1341.3644     4.9680    43.2242
         TOT.                     -234.658   14276.0107    98.2848   162.5940

 280.00  VIB.     0.7633D+09                 13049.9982    93.6982    87.2518
         ROT.     0.1327D+08                   834.6267     2.9808    35.5725
         INT.     0.1013D+17                 13884.6249    96.6790   122.8243
         TRA.     0.6586D+28                  1391.0445     4.9680    43.4048
         TOT.                     -233.659   15275.6695   101.6470   166.2291

 290.00  VIB.     0.1764D+10                 14003.7830    97.0580    90.5984
         ROT.     0.1398D+08                   864.4348     2.9808    35.6771
         INT.     0.2467D+17                 14868.2178   100.0388   126.2755
         TRA.     0.6942D+28                  1440.7247     4.9680    43.5792
         TOT.                     -232.626   16308.9425   105.0068   169.8547

 300.00  VIB.     0.4079D+10                 14991.1322   100.4102    93.9454
         ROT.     0.1471D+08                   894.2429     2.9808    35.7781
         INT.     0.6001D+17                 15885.3751   103.3910   129.7235
         TRA.     0.7304D+28                  1490.4049     4.9680    43.7476
         TOT.                     -231.559   17375.7800   108.3590   173.4711

 310.00  VIB.     0.9432D+10                 16011.9431   103.7494    97.2923
         ROT.     0.1545D+08                   924.0510     2.9808    35.8758
         INT.     0.1458D+18                 16935.9941   106.7302   133.1682
         TRA.     0.7672D+28                  1540.0850     4.9680    43.9105
         TOT.                     -230.458   18476.0791   111.6983   177.0787

 320.00  VIB.     0.2182D+11                 17066.0608   107.0707   100.6387
         ROT.     0.1621D+08                   953.8591     2.9808    35.9705
         INT.     0.3536D+18                 18019.9199   110.0515   136.6092
         TRA.     0.8046D+28                  1589.7652     4.9680    44.0682
         TOT.                     -229.325   19609.6851   115.0195   180.6774

 330.00  VIB.     0.5047D+11                 18153.2801   110.3690   103.9840
         ROT.     0.1697D+08                   983.6672     2.9808    36.0622
         INT.     0.8567D+18                 19136.9473   113.3498   140.0462
         TRA.     0.8426D+28                  1639.4454     4.9680    44.2211
         TOT.                     -228.158   20776.3927   118.3178   184.2673

 340.00  VIB.     0.1168D+12                 19273.3485   113.6398   107.3275
         ROT.     0.1775D+08                  1013.4753     2.9808    36.1512
         INT.     0.2073D+19                 20286.8238   116.6206   143.4787
         TRA.     0.8812D+28                  1689.1255     4.9680    44.3694
         TOT.                     -226.959   21975.9494   121.5886   187.8481

 350.00  VIB.     0.2703D+12                 20425.9697   116.8789   110.6684
         ROT.     0.1854D+08                  1043.2834     2.9808    36.2376
         INT.     0.5011D+19                 21469.2531   119.8597   146.9060
         TRA.     0.9204D+28                  1738.8057     4.9680    44.5134
         TOT.                     -225.726   23208.0588   124.8277   191.4195

 360.00  VIB.     0.6255D+12                 21610.8075   120.0825   114.0060
         ROT.     0.1934D+08                  1073.0915     2.9808    36.3216
         INT.     0.1210D+20                 22683.8991   123.0633   150.3276
         TRA.     0.9601D+28                  1788.4859     4.9680    44.6534
         TOT.                     -224.462   24472.3849   128.0313   194.9810

 370.00  VIB.     0.1447D+13                 22827.4907   123.2474   117.3394
         ROT.     0.2015D+08                  1102.8996     2.9808    36.4032
         INT.     0.2917D+20                 23930.3903   126.2282   153.7427
         TRA.     0.1000D+29                  1838.1660     4.9680    44.7895
         TOT.                     -223.166   25768.5564   131.1962   198.5322

 380.00  VIB.     0.3350D+13                 24075.6169   126.3707   120.6678
         ROT.     0.2097D+08                  1132.7077     2.9808    36.4827
         INT.     0.7026D+20                 25208.3246   129.3515   157.1505
         TRA.     0.1041D+29                  1887.8462     4.9680    44.9220
         TOT.                     -221.838   27096.1708   134.3195   202.0725

 390.00  VIB.     0.7751D+13                 25354.7570   129.4498   123.9902
         ROT.     0.2181D+08                  1162.5158     2.9808    36.5602
         INT.     0.1690D+21                 26517.2728   132.4306   160.5504
         TRA.     0.1083D+29                  1937.5263     4.9680    45.0510
         TOT.                     -220.480   28454.7991   137.3986   205.6014

 400.00  VIB.     0.1793D+14                 26664.4595   132.4828   127.3059
         ROT.     0.2265D+08                  1192.3239     2.9808    36.6356
         INT.     0.4062D+21                 27856.7834   135.4637   163.9416
         TRA.     0.1125D+29                  1987.2065     4.9680    45.1768
         TOT.                     -219.090   29843.9899   140.4317   209.1184

   *: NOTE: HEATS OF FORMATION ARE RELATIVE TO THE
             ELEMENTS IN THEIR STANDARD STATE AT 298K
              (=  Standard Enthalpy of Formation).
            Heat of Formation at T is calculated as [Escf + (HT - H298.15)-.

            Hvib:  Zero-point energy is not included.
                   Wi < 100 cm-1 are not included.
            Hrot = (3/2)RT
            Htra = (3/2)RT + pV = (5/2)RT

            Heat capacity is Cp, not Cv

                 See Section 8.20 in Manual for further information.   (by TH).

           FORCE CONSTANT IN CARTESIAN COORDINATES (Millidynes/A)

    ATOM   CHEMICAL       X               Y               Z
   NUMBER   SYMBOL  FORCE CONSTANT  FORCE CONSTANT  FORCE CONSTANT

      1       C        7.276255        7.814446        7.699848
      2       C        6.850189        7.524321        6.150238
      3       C        7.820412       12.209100        3.975977
      4       C        8.971987       11.507414        3.784430
      5       C        7.542663        7.446245        7.278025
      6       C        7.376320       11.896281        5.175107
      7       C        7.978124       11.020239        4.993813
      8       C        7.356061        6.714052        6.395171
      9       C        7.677580        7.266070        7.947922
     10       C        7.153440        6.939582        6.192811
     11       C        7.237287       12.426556        5.018612
     12       O        2.573469        9.719376        1.433805
     13       O        5.538797        5.882263        1.825177
     14       C        9.131666       11.651048        3.877893
     15       O        4.317228        7.997181        1.130629
     16       C        6.752733        7.418487        6.246358
     17       H        1.085695        1.482982        2.653324
     18       H        1.115432        1.680654        2.534812
     19       H        2.051820        2.314138        1.172661
     20       H        1.607647        2.976974        0.726150
     21       H        0.864998        0.674867        3.738306
     22       H        1.842716        2.948289        0.602853
     23       H        0.941971        0.590139        3.703130
     24       H        4.041351        0.747873        0.572875
     25       H        0.614236        1.129973        3.481467
     26       C        8.700244        5.088442        9.413795
     27       C        8.601336        5.241182        9.789289
     28       C        8.381650        4.711381        8.917207
     29       C        9.151530        5.471636        9.037055
     30       H        1.873041        1.745724        1.702196
     31       C        7.634615        5.093116        9.333422
     32       C        7.999988        4.969674        9.213027
     33       H        3.185135        0.899724        1.274201
     34       H        1.907256        1.812031        1.691725
     35       O        5.337762        2.427968        3.318384
     36       H        1.126694        0.851111        1.891831
     37       O        3.125294        2.118185        5.863553
     38       H        1.347394        1.351858        1.603401
     39       C        6.407652        6.420050        6.799117
     40       H        0.871623        2.025182        2.468300
     41       H        4.121347        0.524887        0.685010
     42       H        0.896449        3.480700        0.979401
     43       C        6.403251        6.854801        6.404893
     44       H        0.917772        2.385098        2.029614
     45       H        0.886571        0.990149        3.452472
     46       H        4.108702        0.705904        0.526281
     47       C        6.482461        6.329626        6.860042
     48       H        1.654566        2.914686        0.742668
     49       H        1.908705        2.704405        0.718661
     50       H        2.075332        0.512471        2.749666
     51       C        6.620234        6.334643        6.701598
     52       H        1.252848        0.511389        3.589181
     53       H        1.936759        2.763557        0.625062
     54       H        1.817630        2.861310        0.622366



 TOTAL CPU TIME:            63.07 SECONDS

 == MOPAC DONE ==
