 *******************************************************************************
 ** Site#:  958            For non-commercial use only         Version 9.015L **
 *******************************************************************************
 ** Cite this work as: MOPAC2009, James J. P. Stewart, Stewart Computational  **
 ** Chemistry, Version 9.015L web: HTTP://OpenMOPAC.net                       **
 *******************************************************************************
 **                                                                           **
 **                                MOPAC2009                                  **
 **                                                                           **
 *******************************************************************************

                            PM6 CALCULATION RESULTS


 *******************************************************************************
 *  CALCULATION DONE:                                Tue Sep  6 16:25:19 2011  *
 *  PM6      - The PM6 Hamiltonian to be used
 *
 *
 *
 *                 CHARGE ON SYSTEM =     0
 *
 *
 *
 *  EPS= 78.400
 *  RSOLV=  1.300
 *  LET      - OVERRIDE SOME SAFETY CHECKS
 *  XYZ      - CARTESIAN COORDINATE SYSTEM TO BE USED
 *  T=       - A TIME OF  0.3E+08 SECONDS REQUESTED
 *  DUMP=N   - RESTART FILE WRITTEN EVERY  4320.000 SECONDS
 *  DDMIN=   - MINIMUM TRUST RADIUS  0.000 ANG/RAD
 *  GNORM=   - EXIT WHEN GRADIENT NORM DROPS BELOW .150    
 *  RELSCF   - DEFAULT SCF CRITERION MULTIPLIED BY   0.100    
 *             (DEFAULT SCFCRT= 0.00010)
 *  SYBYL    - OUTPUT SYBYL FILE
 *  MULLIK   - THE MULLIKEN ANALYSIS TO BE PERFORMED
 *******************************************************************************
 PM6 T=31535733 DUMP=4320 XYZ EPS=78.40 RSOLV=1.30 MULLIK SYBYL +
 CHARGE=-0 RELSCF=0.1 LET DDMIN=0.0 GNORM=0.15
 SJ000001528-1_T001S001I001C01: Geometry optimization step

   ATOM   CHEMICAL          X               Y              Z
  NUMBER   SYMBOL      (ANGSTROMS)     (ANGSTROMS)    (ANGSTROMS)
 
     1       C          1.3970000  *    1.916000  *   -0.001000  *
     2       C          2.0330000  *    2.162000  *   -1.202000  *
     3       C          3.3350000  *    2.642000  *   -1.211000  *
     4       C          3.9950000  *    2.875000  *   -0.012000  *
     5       C          3.3530000  *    2.628000  *    1.186000  *
     6       C          2.0540000  *    2.154000  *    1.192000  *
     7       H          1.5170000  *    1.979000  *   -2.134000  *
     8       H          5.0080000  *    3.248000  *   -0.016000  *
     9       H          3.8660000  *    2.808000  *    2.120000  *
    10       H          1.5550000  *    1.962000  *    2.130000  *
    11       N          3.9830000  *    2.893000  *   -2.429000  *
    12       C          5.2390000  *    3.357000  *   -2.558000  *
    13       O          5.9940000  *    3.627000  *   -1.646000  *
    14       C          5.5450000  *    3.483000  *   -4.000000  *
    15       C          4.4480000  *    3.084000  *   -4.666000  *
    16       H          6.4710000  *    3.829000  *   -4.434000  *
    17       C          3.4460000  *    2.699000  *   -3.647000  *
    18       H          4.3230000  *    3.047000  *   -5.738000  *
    19       O          2.3270000  *    2.286000  *   -3.872000  *
    20       C         -0.0170000  *    1.395000  *    0.010000  *
    21       F          0.0020000  *   -0.004000  *    0.002000  *
    22       F         -0.6940000  *    1.858000  *   -1.124000  *
    23       F         -0.6720000  *    1.846000  *    1.161000  *
 


          CARTESIAN COORDINATES 

    NO.       ATOM         X         Y         Z

     1         C        1.3970    1.9160   -0.0010
     2         C        2.0330    2.1620   -1.2020
     3         C        3.3350    2.6420   -1.2110
     4         C        3.9950    2.8750   -0.0120
     5         C        3.3530    2.6280    1.1860
     6         C        2.0540    2.1540    1.1920
     7         H        1.5170    1.9790   -2.1340
     8         H        5.0080    3.2480   -0.0160
     9         H        3.8660    2.8080    2.1200
    10         H        1.5550    1.9620    2.1300
    11         N        3.9830    2.8930   -2.4290
    12         C        5.2390    3.3570   -2.5580
    13         O        5.9940    3.6270   -1.6460
    14         C        5.5450    3.4830   -4.0000
    15         C        4.4480    3.0840   -4.6660
    16         H        6.4710    3.8290   -4.4340
    17         C        3.4460    2.6990   -3.6470
    18         H        4.3230    3.0470   -5.7380
    19         O        2.3270    2.2860   -3.8720
    20         C       -0.0170    1.3950    0.0100
    21         F        0.0020   -0.0040    0.0020
    22         F       -0.6940    1.8580   -1.1240
    23         F       -0.6720    1.8460    1.1610

 General Reference for PM6:
 "Optimization of Parameters for Semiempirical Methods V: Modification of NDDO Approximations
 and Application to 70 Elements", J. J. P. Stewart, J. Mol. Mod., 13, 1173-1213 (2007)
 URL: http://www.springerlink.com/content/ar33482301010477/fulltext.pdf

           Empirical Formula: C11 H6 N O2 F3  =    23 atoms



      MOLECULAR POINT GROUP   :   C1  


      RHF CALCULATION, NO. OF DOUBLY OCCUPIED LEVELS =   44

      Geometry optimization using EF
  SCF CRITERION =    0.1000E-04

          DIAGONAL MATRIX USED AS START HESSIAN

 CYCLE:     1 TIME:   0.067 TIME LEFT: 16.53W  GRAD.:   261.132 HEAT:-160.0927
 CYCLE:     2 TIME:   0.043 TIME LEFT: 16.53W  GRAD.:   292.191 HEAT:-172.9163
 CYCLE:     3 TIME:   0.041 TIME LEFT: 16.53W  GRAD.:   279.169 HEAT:-172.9381
 CYCLE:     4 TIME:   0.041 TIME LEFT: 16.53W  GRAD.:   216.928 HEAT:-177.5153
 CYCLE:     5 TIME:   0.042 TIME LEFT: 16.53W  GRAD.:   204.812 HEAT:-182.2923
 CYCLE:     6 TIME:   0.041 TIME LEFT: 16.53W  GRAD.:   320.863 HEAT:-168.7987
 CYCLE:     7 TIME:   0.041 TIME LEFT: 16.53W  GRAD.:   161.439 HEAT:-183.6448
 CYCLE:     8 TIME:   0.040 TIME LEFT: 16.53W  GRAD.:   234.700 HEAT:-179.5837
 CYCLE:     9 TIME:   0.040 TIME LEFT: 16.53W  GRAD.:   394.433 HEAT:-167.6830
 CYCLE:    10 TIME:   0.041 TIME LEFT: 16.53W  GRAD.:   256.585 HEAT:-180.3786
 CYCLE:    11 TIME:   0.041 TIME LEFT: 16.53W  GRAD.:   299.631 HEAT:-174.4323
 CYCLE:    12 TIME:   0.040 TIME LEFT: 16.53W  GRAD.:   229.825 HEAT:-179.3196
 CYCLE:    13 TIME:   0.040 TIME LEFT: 16.53W  GRAD.:   296.143 HEAT:-178.1320
 CYCLE:    14 TIME:   0.041 TIME LEFT: 16.53W  GRAD.:   287.888 HEAT:-173.0280
 CYCLE:    15 TIME:   0.041 TIME LEFT: 16.53W  GRAD.:   249.165 HEAT:-180.2914
 CYCLE:    16 TIME:   0.040 TIME LEFT: 16.53W  GRAD.:   269.303 HEAT:-176.0496
 CYCLE:    17 TIME:   0.040 TIME LEFT: 16.53W  GRAD.:   388.265 HEAT:-171.9275
 CYCLE:    18 TIME:   0.040 TIME LEFT: 16.53W  GRAD.:   243.845 HEAT:-179.2125
 CYCLE:    19 TIME:   0.041 TIME LEFT: 16.53W  GRAD.:   302.992 HEAT:-174.5801
 CYCLE:    20 TIME:   0.041 TIME LEFT: 16.53W  GRAD.:   241.977 HEAT:-177.9785
 CYCLE:    21 TIME:   0.040 TIME LEFT: 16.53W  GRAD.:   293.548 HEAT:-177.3908
 CYCLE:    22 TIME:   0.040 TIME LEFT: 16.53W  GRAD.:   257.176 HEAT:-177.7310
 CYCLE:    23 TIME:   0.043 TIME LEFT: 16.53W  GRAD.:   188.179 HEAT:-182.3708
 CYCLE:    24 TIME:   0.040 TIME LEFT: 16.53W  GRAD.:   308.196 HEAT:-177.1419
 CYCLE:    25 TIME:   0.040 TIME LEFT: 16.53W  GRAD.:   196.130 HEAT:-181.7084
 CYCLE:    26 TIME:   0.041 TIME LEFT: 16.53W  GRAD.:   233.952 HEAT:-179.9234
 CYCLE:    27 TIME:   0.041 TIME LEFT: 16.53W  GRAD.:   255.438 HEAT:-175.0697
 CYCLE:    28 TIME:   0.043 TIME LEFT: 16.53W  GRAD.:   292.028 HEAT:-177.6127
 CYCLE:    29 TIME:   0.041 TIME LEFT: 16.53W  GRAD.:   169.688 HEAT:-183.7536
 CYCLE:    30 TIME:   0.042 TIME LEFT: 16.53W  GRAD.:   185.810 HEAT:-183.2230
 CYCLE:    31 TIME:   0.041 TIME LEFT: 16.53W  GRAD.:   113.805 HEAT:-189.5698
 CYCLE:    32 TIME:   0.041 TIME LEFT: 16.53W  GRAD.:   216.735 HEAT:-178.1303
 CYCLE:    33 TIME:   0.043 TIME LEFT: 16.53W  GRAD.:    91.142 HEAT:-190.3783
 CYCLE:    34 TIME:   0.044 TIME LEFT: 16.53W  GRAD.:   265.165 HEAT:-174.4227
 CYCLE:    35 TIME:   0.042 TIME LEFT: 16.53W  GRAD.:   112.596 HEAT:-188.3881
 CYCLE:    36 TIME:   0.040 TIME LEFT: 16.53W  GRAD.:   133.731 HEAT:-185.4270
 CYCLE:    37 TIME:   0.040 TIME LEFT: 16.53W  GRAD.:    87.731 HEAT:-189.8299
 CYCLE:    38 TIME:   0.040 TIME LEFT: 16.53W  GRAD.:   143.669 HEAT:-183.4880
 CYCLE:    39 TIME:   0.042 TIME LEFT: 16.53W  GRAD.:    74.027 HEAT:-190.9864
 CYCLE:    40 TIME:   0.041 TIME LEFT: 16.53W  GRAD.:   176.932 HEAT:-180.4052
 CYCLE:    41 TIME:   0.041 TIME LEFT: 16.53W  GRAD.:    38.837 HEAT:-192.3215
 CYCLE:    42 TIME:   0.040 TIME LEFT: 16.53W  GRAD.:   105.451 HEAT:-187.8494
 CYCLE:    43 TIME:   0.039 TIME LEFT: 16.53W  GRAD.:    44.111 HEAT:-192.2560
 CYCLE:    44 TIME:   0.040 TIME LEFT: 16.53W  GRAD.:   175.147 HEAT:-181.2110
 CYCLE:    45 TIME:   0.040 TIME LEFT: 16.53W  GRAD.:    16.563 HEAT:-192.8765
 CYCLE:    46 TIME:   0.039 TIME LEFT: 16.53W  GRAD.:    32.346 HEAT:-192.5297
 CYCLE:    47 TIME:   0.038 TIME LEFT: 16.53W  GRAD.:     9.704 HEAT:-192.9366
 CYCLE:    48 TIME:   0.038 TIME LEFT: 16.53W  GRAD.:    24.781 HEAT:-192.7356
 CYCLE:    49 TIME:   0.037 TIME LEFT: 16.53W  GRAD.:     1.412 HEAT:-192.9780
 CYCLE:    50 TIME:   0.039 TIME LEFT: 16.53W  GRAD.:     2.200 HEAT:-192.9755
 CYCLE:    51 TIME:   0.036 TIME LEFT: 16.53W  GRAD.:     0.368 HEAT:-192.9781
 CYCLE:    52 TIME:   0.038 TIME LEFT: 16.53W  GRAD.:     0.420 HEAT:-192.9784
 CYCLE:    53 TIME:   0.039 TIME LEFT: 16.53W  GRAD.:     0.399 HEAT:-192.9792
 CYCLE:    54 TIME:   0.039 TIME LEFT: 16.53W  GRAD.:     0.563 HEAT:-192.9815
 CYCLE:    55 TIME:   0.038 TIME LEFT: 16.53W  GRAD.:     0.523 HEAT:-192.9816
 CYCLE:    56 TIME:   0.037 TIME LEFT: 16.53W  GRAD.:     0.257 HEAT:-192.9816
 CYCLE:    57 TIME:   0.037 TIME LEFT: 16.53W  GRAD.:     0.228 HEAT:-192.9826
 CYCLE:    58 TIME:   0.037 TIME LEFT: 16.53W  GRAD.:     0.160 HEAT:-192.9829
 CYCLE:    59 TIME:   0.037 TIME LEFT: 16.53W  GRAD.:     0.137 HEAT:-192.9831

     RMS GRADIENT =  0.13717  IS LESS THAN CUTOFF =  0.15000



 -------------------------------------------------------------------------------
 PM6 T=31535733 DUMP=4320 XYZ EPS=78.40 RSOLV=1.30 MULLIK SYBYL +
 CHARGE=-0 RELSCF=0.1 LET DDMIN=0.0 GNORM=0.15
 SJ000001528-1_T001S001I001C01: Geometry optimization step



     GEOMETRY OPTIMISED USING EIGENVECTOR FOLLOWING (EF).     
     SCF FIELD WAS ACHIEVED                                   


                               PM6     CALCULATION
                                                       MOPAC2009 (Version: 9.015L)
                                                       Tue Sep  6 16:25:22 2011




          FINAL HEAT OF FORMATION =       -192.98307 KCAL =    -807.44115 KJ
          VAN DER WAALS AREA      =        231.59 SQUARE ANGSTROMS


          TOTAL ENERGY            =      -3604.31930 EV
          ELECTRONIC ENERGY       =      -4565.66302 EV  POINT GROUP:     C1  
          CORE-CORE REPULSION     =        961.34373 EV
          DIELECTRIC ENERGY       =         -0.47364 EV
          COSMO AREA              =        231.59 SQUARE ANGSTROMS
          COSMO VOLUME            =        243.78 CUBIC ANGSTROMS

          IONIZATION POTENTIAL    =          9.698094 EV
          HOMO LUMO ENERGIES (EV) =         -9.698 -1.756
          NO. OF FILLED LEVELS    =         44
          MOLECULAR WEIGHT        =        241.169

          MOLECULAR DIMENSIONS (Angstroms)

            Atom       Atom       Distance
            H    16    F    23     9.44884
            H    18    H     9     6.16138
            F    21    F    22     1.82598


          SCF CALCULATIONS        =         61
          COMPUTATION TIME        =          2.434 SECONDS




   ATOM   CHEMICAL          X               Y              Z
  NUMBER   SYMBOL      (ANGSTROMS)     (ANGSTROMS)    (ANGSTROMS)
 
     1       C          1.3822821  *    1.929103  *    0.045764  *
     2       C          2.0205983  *    2.160519  *   -1.178626  *
     3       C          3.3417865  *    2.643822  *   -1.188521  *
     4       C          4.0087999  *    2.878675  *    0.031853  *
     5       C          3.3570660  *    2.629640  *    1.237104  *
     6       C          2.0415531  *    2.152087  *    1.258131  *
     7       H          1.4967878  *    1.962561  *   -2.120259  *
     8       H          5.0382338  *    3.254265  *    0.051211  *
     9       H          3.8810907  *    2.809228  *    2.181832  *
    10       H          1.5571728  *    1.959474  *    2.219047  *
    11       N          4.0076466  *    2.895728  *   -2.437869  *
    12       C          5.3663506  *    3.399821  *   -2.588813  *
    13       O          6.1126237  *    3.668422  *   -1.683437  *
    14       C          5.6015154  *    3.499972  *   -4.075920  *
    15       C          4.5112689  *    3.104444  *   -4.738236  *
    16       H          6.5553122  *    3.854538  *   -4.456187  *
    17       C          3.4353009  *    2.697462  *   -3.762248  *
    18       H          4.3299985  *    3.048654  *   -5.807936  *
    19       O          2.3246618  *    2.288388  *   -3.983608  *
    20       C         -0.0276620  *    1.401980  *    0.049122  *
    21       F         -0.1088215  *    0.057975  *    0.025823  *
    22       F         -0.8000767  *    1.775847  *   -0.987437  *
    23       F         -0.7779518  *    1.738492  *    1.113930  *

           Empirical Formula: C11 H6 N O2 F3  =    23 atoms



      MOLECULAR POINT GROUP   :   C1  


                  EIGENVALUES  
 -42.76190 -42.50713 -42.47102 -33.99116 -33.19535 -32.32846 -30.82597 -29.18615
 -27.47508 -26.22185 -24.79336 -24.26598 -22.89819 -22.33368 -20.79478 -20.77525
 -19.45314 -19.22707 -19.07946 -17.75204 -17.45882 -17.19983 -17.15998 -17.11570
 -16.82779 -16.78821 -16.51673 -15.87220 -15.80589 -15.70013 -15.57489 -15.45745
 -15.08717 -14.79494 -14.55118 -14.25580 -13.56165 -12.94161 -12.31174 -12.03378
 -11.96560 -11.23887 -10.62128  -9.69809  -1.75576  -0.81422  -0.55013  -0.02593
   0.61260   0.63175   1.21448   1.70285   1.84562   1.91665   1.95855   2.34076
   2.58902   2.86537   2.98672   3.38111   3.63736   3.94012   4.05954   4.18602
   4.36041   4.40046   4.47115   4.85948   5.16941   5.20241   5.37836   5.59449
   5.71758   5.75000


              NET ATOMIC CHARGES AND DIPOLE CONTRIBUTIONS

  ATOM NO.   TYPE          CHARGE      No. of ELECS.   s-Pop       p-Pop       
    1          C          -0.090640        4.0906     1.09114     2.99950
    2          C          -0.217701        4.2177     1.11186     3.10584
    3          C           0.236752        3.7632     1.07061     2.69264
    4          C          -0.220994        4.2210     1.11838     3.10262
    5          C          -0.090170        4.0902     1.10984     2.98033
    6          C          -0.143943        4.1439     1.11050     3.03344
    7          H           0.201105        0.7989     0.79889
    8          H           0.199226        0.8008     0.80077
    9          H           0.177055        0.8229     0.82294
   10          H           0.184245        0.8158     0.81576
   11          N          -0.518459        5.5185     1.54926     3.96920
   12          C           0.644537        3.3555     1.08963     2.26583
   13          O          -0.488959        6.4890     1.84730     4.64166
   14          C          -0.200261        4.2003     1.14515     3.05511
   15          C          -0.199565        4.1996     1.14499     3.05457
   16          H           0.224254        0.7757     0.77575
   17          C           0.644208        3.3558     1.08966     2.26614
   18          H           0.224350        0.7757     0.77565
   19          O          -0.492125        6.4921     1.84738     4.64474
   20          C           0.513698        3.4863     1.16387     2.32244
   21          F          -0.198356        7.1984     1.97112     5.22724
   22          F          -0.194810        7.1948     1.97092     5.22389
   23          F          -0.193448        7.1934     1.97090     5.22255
 DIPOLE           X         Y         Z       TOTAL
 POINT-CHG.     5.844     2.216    -2.584     6.763
 HYBRID        -0.682    -0.259     0.250     0.771
 SUM            5.162     1.957    -2.334     5.994


          CARTESIAN COORDINATES 

    NO.       ATOM               X         Y         Z

     1         C                  1.3823    1.9291    0.0458
     2         C                  2.0206    2.1605   -1.1786
     3         C                  3.3418    2.6438   -1.1885
     4         C                  4.0088    2.8787    0.0319
     5         C                  3.3571    2.6296    1.2371
     6         C                  2.0416    2.1521    1.2581
     7         H                  1.4968    1.9626   -2.1203
     8         H                  5.0382    3.2543    0.0512
     9         H                  3.8811    2.8092    2.1818
    10         H                  1.5572    1.9595    2.2190
    11         N                  4.0076    2.8957   -2.4379
    12         C                  5.3664    3.3998   -2.5888
    13         O                  6.1126    3.6684   -1.6834
    14         C                  5.6015    3.5000   -4.0759
    15         C                  4.5113    3.1044   -4.7382
    16         H                  6.5553    3.8545   -4.4562
    17         C                  3.4353    2.6975   -3.7622
    18         H                  4.3300    3.0487   -5.8079
    19         O                  2.3247    2.2884   -3.9836
    20         C                 -0.0277    1.4020    0.0491
    21         F                 -0.1088    0.0580    0.0258
    22         F                 -0.8001    1.7758   -0.9874
    23         F                 -0.7780    1.7385    1.1139


          ATOMIC ORBITAL ELECTRON POPULATIONS

   1.09114   0.94080   1.06421   0.99448   1.11186   1.00703   1.03957   1.05925
   1.07061   0.91599   0.95253   0.82412   1.11838   1.09754   1.03615   0.96892
   1.10984   0.98145   0.95220   1.04668   1.11050   1.00362   0.98991   1.03992
   0.79889   0.80077   0.82294   0.81576   1.54926   1.22393   1.61018   1.13509
   1.08963   0.74063   0.66047   0.86474   1.84730   1.57539   1.51996   1.54631
   1.14515   1.08094   0.98908   0.98510   1.14499   0.97908   0.97470   1.10079
   0.77575   1.08966   0.80482   0.66957   0.79174   0.77565   1.84738   1.34101
   1.48874   1.81499   1.16387   0.85109   0.74729   0.72406   1.97112   1.97681
   1.27914   1.97129   1.97092   1.74016   1.92121   1.56252   1.97090   1.75282
   1.93104   1.53868

           MULLIKEN POPULATION ANALYSIS



        MULLIKEN POPULATIONS AND CHARGES

      NO.  ATOM   POPULATION      CHARGE
        1    C     4.105327     -0.105327
        2    C     4.265952     -0.265952
        3    C     3.722924      0.277076
        4    C     4.278847     -0.278847
        5    C     4.136612     -0.136612
        6    C     4.189752     -0.189752
        7    H     0.738897      0.261103
        8    H     0.741323      0.258677
        9    H     0.769242      0.230758
       10    H     0.759773      0.240227
       11    N     5.647026     -0.647026
       12    C     3.293994      0.706006
       13    O     6.514394     -0.514394
       14    C     4.263672     -0.263672
       15    C     4.262882     -0.262882
       16    H     0.708573      0.291427
       17    C     3.294314      0.705686
       18    H     0.708467      0.291533
       19    O     6.517626     -0.517626
       20    C     3.461912      0.538088
       21    F     7.208894     -0.208894
       22    F     7.205482     -0.205482
       23    F     7.204113     -0.204113



 TOTAL CPU TIME:             2.44 SECONDS

 == MOPAC DONE ==
 *******************************************************************************
 ** Site#:  958            For non-commercial use only         Version 9.015L **
 *******************************************************************************
 ** Cite this work as: MOPAC2009, James J. P. Stewart, Stewart Computational  **
 ** Chemistry, Version 9.015L web: HTTP://OpenMOPAC.net                       **
 *******************************************************************************
 **                                                                           **
 **                                MOPAC2009                                  **
 **                                                                           **
 *******************************************************************************

                            PM6 CALCULATION RESULTS


 *******************************************************************************
 *  CALCULATION DONE:                                Tue Sep  6 16:25:22 2011  *
 *  PM6      - The PM6 Hamiltonian to be used
 *  GEO-OK   - OVERRIDE INTERATOMIC DISTANCE CHECK
 *
 *
 *
 *                 CHARGE ON SYSTEM =     0
 *
 *
 *
 *  EPS= 78.400
 *  RSOLV=  1.300
 *  OLDGEO   - PREVIOUS GEOMETRY TO BE USED
 *  T=       - A TIME OF 172800.0 SECONDS REQUESTED
 *  DUMP=N   - RESTART FILE WRITTEN EVERY  4320.000 SECONDS
 *  RELSCF   - DEFAULT SCF CRITERION MULTIPLIED BY   0.100    
 *             (DEFAULT SCFCRT= 0.00010)
 *  THERMO   - THERMODYNAMIC QUANTITIES TO BE CALCULATED
 *******************************************************************************
 PM6 DUMP=4320 RELSCF=0.1 THERMO EPS=78.40 RSOLV=1.30 +
 OLDGEO GEO-OK CHARGE=-0
 SJ000001528-1_T001S001I001C01: Free energy calculation

   ATOM   CHEMICAL          X               Y              Z
  NUMBER   SYMBOL      (ANGSTROMS)     (ANGSTROMS)    (ANGSTROMS)
 
     1       C          1.3822821  *    1.929103  *    0.045764  *
     2       C          2.0205983  *    2.160519  *   -1.178626  *
     3       C          3.3417865  *    2.643822  *   -1.188521  *
     4       C          4.0087999  *    2.878675  *    0.031853  *
     5       C          3.3570660  *    2.629640  *    1.237104  *
     6       C          2.0415531  *    2.152087  *    1.258131  *
     7       H          1.4967878  *    1.962561  *   -2.120259  *
     8       H          5.0382338  *    3.254265  *    0.051211  *
     9       H          3.8810907  *    2.809228  *    2.181832  *
    10       H          1.5571728  *    1.959474  *    2.219047  *
    11       N          4.0076466  *    2.895728  *   -2.437869  *
    12       C          5.3663506  *    3.399821  *   -2.588813  *
    13       O          6.1126237  *    3.668422  *   -1.683437  *
    14       C          5.6015154  *    3.499972  *   -4.075920  *
    15       C          4.5112689  *    3.104444  *   -4.738236  *
    16       H          6.5553122  *    3.854538  *   -4.456187  *
    17       C          3.4353009  *    2.697462  *   -3.762248  *
    18       H          4.3299985  *    3.048654  *   -5.807936  *
    19       O          2.3246618  *    2.288388  *   -3.983608  *
    20       C         -0.0276620  *    1.401980  *    0.049122  *
    21       F         -0.1088215  *    0.057975  *    0.025823  *
    22       F         -0.8000767  *    1.775847  *   -0.987437  *
    23       F         -0.7779518  *    1.738492  *    1.113930  *
 


          CARTESIAN COORDINATES 

    NO.       ATOM         X         Y         Z

     1         C        1.3823    1.9291    0.0458
     2         C        2.0206    2.1605   -1.1786
     3         C        3.3418    2.6438   -1.1885
     4         C        4.0088    2.8787    0.0319
     5         C        3.3571    2.6296    1.2371
     6         C        2.0416    2.1521    1.2581
     7         H        1.4968    1.9626   -2.1203
     8         H        5.0382    3.2543    0.0512
     9         H        3.8811    2.8092    2.1818
    10         H        1.5572    1.9595    2.2190
    11         N        4.0076    2.8957   -2.4379
    12         C        5.3664    3.3998   -2.5888
    13         O        6.1126    3.6684   -1.6834
    14         C        5.6015    3.5000   -4.0759
    15         C        4.5113    3.1044   -4.7382
    16         H        6.5553    3.8545   -4.4562
    17         C        3.4353    2.6975   -3.7622
    18         H        4.3300    3.0487   -5.8079
    19         O        2.3247    2.2884   -3.9836
    20         C       -0.0277    1.4020    0.0491
    21         F       -0.1088    0.0580    0.0258
    22         F       -0.8001    1.7758   -0.9874
    23         F       -0.7780    1.7385    1.1139

 General Reference for PM6:
 "Optimization of Parameters for Semiempirical Methods V: Modification of NDDO Approximations
 and Application to 70 Elements", J. J. P. Stewart, J. Mol. Mod., 13, 1173-1213 (2007)
 URL: http://www.springerlink.com/content/ar33482301010477/fulltext.pdf

           Empirical Formula: C11 H6 N O2 F3  =    23 atoms



      MOLECULAR POINT GROUP   :   C1  


      RHF CALCULATION, NO. OF DOUBLY OCCUPIED LEVELS =   44

  SCF CRITERION =    0.1000E-04


          HEAT OF FORMATION =    -192.983065 KCALS/MOLE


          INTERNAL COORDINATE DERIVATIVES

   NUMBER  ATOM       BOND         ANGLE      DIHEDRAL

     1       C
     2       C     -0.025892
     3       C     -0.044128     0.028994
     4       C      0.037657    -0.048592     0.001517
     5       C     -0.081666    -0.094367     0.008237
     6       C     -0.056993     0.134760     0.000045
     7       H      0.108504    -0.016197     0.024097
     8       H     -0.057221    -0.000508    -0.029145
     9       H      0.013526     0.029575     0.013855
    10       H      0.034196     0.007634     0.010308
    11       N     -0.009675     0.008705     0.009321
    12       C      0.013332    -0.015043     0.009099
    13       O      0.030767    -0.094917     0.044064
    14       C     -0.080120    -0.122586    -0.029482
    15       C      0.073201     0.158642    -0.020037
    16       H      0.020859    -0.046095     0.020863
    17       C     -0.050191     0.089148    -0.030918
    18       H     -0.038586     0.003584    -0.001326
    19       O      0.054740     0.005205    -0.024237
    20       C      0.044118    -0.001498    -0.014598
    21       F      0.045479     0.054701     0.027214
    22       F     -0.019488     0.007222    -0.031956
    23       F     -0.034952     0.001843    -0.013828


          GRADIENT NORM =   0.41574


          TIME FOR SCF CALCULATION =    0.06

          TIME FOR DERIVATIVES     =    0.03

          MOLECULAR WEIGHT =  241.17



          ROTATIONAL CONSTANTS IN CM(-1)

          A =    0.03233192   B =    0.00915460   C =    0.00740021



           PRINCIPAL MOMENTS OF INERTIA IN UNITS OF 10**(-40)*GRAM-CM**2

          A =      865.7937   B =     3057.7813   C =     3782.6978


          ORIENTATION OF MOLECULE IN FORCE CALCULATION

    NO.       ATOM         X         Y         Z

     1          C      -1.7373   -0.3964   -0.0011
     2          C      -0.3372   -0.3964   -0.0011
     3          C       0.3537    0.8291   -0.0011
     4          C      -0.3706    2.0393    0.0095
     5          C      -1.7630    2.0137    0.0214
     6          C      -2.4601    0.8000    0.0179
     7          H       0.2147   -1.3428    0.0033
     8          H       0.1439    3.0070    0.0104
     9          H      -2.3206    2.9562    0.0343
    10          H      -3.5531    0.8103    0.0340
    11          N       1.7915    0.8458   -0.0109
    12          C       2.6263    2.0399   -0.0178
    13          O       2.2192    3.1726   -0.0122
    14          C       4.0506    1.5420   -0.0334
    15          C       4.0674    0.2065   -0.0376
    16          H       4.8766    2.2475   -0.0393
    17          C       2.6560   -0.3261   -0.0235
    18          H       4.9110   -0.4779   -0.0492
    19          O       2.2756   -1.4686   -0.0212
    20          C      -2.4702   -1.7112    0.0096
    21          F      -2.7089   -2.1939    1.2438
    22          F      -1.8540   -2.7354   -0.6086
    23          F      -3.6878   -1.7094   -0.5625


    FIRST DERIVATIVES WILL BE USED IN THE CALCULATION OF SECOND DERIVATIVES

          ESTIMATED TIME TO COMPLETE CALCULATION =       12.28 SECONDS

    FOR POINT-GROUP C1   THERE ARE   1 UNIQUE SYMMETRY FUNCTIONS.

 STEP:   1 TIME =     0.08 SECS, INTEGRAL =      0.08 TIME LEFT: 172799.83
 STEP:   2 TIME =     0.08 SECS, INTEGRAL =      0.15 TIME LEFT: 172799.76
 STEP:   3 TIME =     0.07 SECS, INTEGRAL =      0.23 TIME LEFT: 172799.68
 STEP:   4 TIME =     0.08 SECS, INTEGRAL =      0.31 TIME LEFT: 172799.60
 STEP:   5 TIME =     0.08 SECS, INTEGRAL =      0.39 TIME LEFT: 172799.52
 STEP:   6 TIME =     0.08 SECS, INTEGRAL =      0.46 TIME LEFT: 172799.45
 STEP:   7 TIME =     0.07 SECS, INTEGRAL =      0.54 TIME LEFT: 172799.37
 STEP:   8 TIME =     0.08 SECS, INTEGRAL =      0.62 TIME LEFT: 172799.29
 STEP:   9 TIME =     0.08 SECS, INTEGRAL =      0.69 TIME LEFT: 172799.22
 STEP:  10 TIME =     0.08 SECS, INTEGRAL =      0.77 TIME LEFT: 172799.14
 STEP:  11 TIME =     0.07 SECS, INTEGRAL =      0.85 TIME LEFT: 172799.07
 STEP:  12 TIME =     0.08 SECS, INTEGRAL =      0.92 TIME LEFT: 172798.99
 STEP:  13 TIME =     0.08 SECS, INTEGRAL =      1.00 TIME LEFT: 172798.91
 STEP:  14 TIME =     0.08 SECS, INTEGRAL =      1.07 TIME LEFT: 172798.84
 STEP:  15 TIME =     0.07 SECS, INTEGRAL =      1.15 TIME LEFT: 172798.76
 STEP:  16 TIME =     0.07 SECS, INTEGRAL =      1.22 TIME LEFT: 172798.69
 STEP:  17 TIME =     0.08 SECS, INTEGRAL =      1.30 TIME LEFT: 172798.61
 STEP:  18 TIME =     0.08 SECS, INTEGRAL =      1.38 TIME LEFT: 172798.53
 STEP:  19 TIME =     0.07 SECS, INTEGRAL =      1.45 TIME LEFT: 172798.46
 STEP:  20 TIME =     0.07 SECS, INTEGRAL =      1.53 TIME LEFT: 172798.39
 STEP:  21 TIME =     0.07 SECS, INTEGRAL =      1.60 TIME LEFT: 172798.31
 STEP:  22 TIME =     0.07 SECS, INTEGRAL =      1.67 TIME LEFT: 172798.24
 STEP:  23 TIME =     0.07 SECS, INTEGRAL =      1.74 TIME LEFT: 172798.17
 STEP:  24 TIME =     0.07 SECS, INTEGRAL =      1.81 TIME LEFT: 172798.10
 STEP:  25 TIME =     0.07 SECS, INTEGRAL =      1.88 TIME LEFT: 172798.03
 STEP:  26 TIME =     0.07 SECS, INTEGRAL =      1.95 TIME LEFT: 172797.96
 STEP:  27 TIME =     0.07 SECS, INTEGRAL =      2.03 TIME LEFT: 172797.89
 STEP:  28 TIME =     0.07 SECS, INTEGRAL =      2.10 TIME LEFT: 172797.81
 STEP:  29 TIME =     0.07 SECS, INTEGRAL =      2.17 TIME LEFT: 172797.74
 STEP:  30 TIME =     0.07 SECS, INTEGRAL =      2.24 TIME LEFT: 172797.67
 STEP:  31 TIME =     0.08 SECS, INTEGRAL =      2.32 TIME LEFT: 172797.59
 STEP:  32 TIME =     0.08 SECS, INTEGRAL =      2.39 TIME LEFT: 172797.52
 STEP:  33 TIME =     0.07 SECS, INTEGRAL =      2.47 TIME LEFT: 172797.44
 STEP:  34 TIME =     0.08 SECS, INTEGRAL =      2.55 TIME LEFT: 172797.37
 STEP:  35 TIME =     0.08 SECS, INTEGRAL =      2.62 TIME LEFT: 172797.29
 STEP:  36 TIME =     0.08 SECS, INTEGRAL =      2.70 TIME LEFT: 172797.21
 STEP:  37 TIME =     0.07 SECS, INTEGRAL =      2.77 TIME LEFT: 172797.14
 STEP:  38 TIME =     0.07 SECS, INTEGRAL =      2.85 TIME LEFT: 172797.06
 STEP:  39 TIME =     0.07 SECS, INTEGRAL =      2.92 TIME LEFT: 172796.99
 STEP:  40 TIME =     0.07 SECS, INTEGRAL =      3.00 TIME LEFT: 172796.92
 STEP:  41 TIME =     0.07 SECS, INTEGRAL =      3.07 TIME LEFT: 172796.84
 STEP:  42 TIME =     0.07 SECS, INTEGRAL =      3.14 TIME LEFT: 172796.77
 STEP:  43 TIME =     0.07 SECS, INTEGRAL =      3.22 TIME LEFT: 172796.69
 STEP:  44 TIME =     0.07 SECS, INTEGRAL =      3.29 TIME LEFT: 172796.62
 STEP:  45 TIME =     0.07 SECS, INTEGRAL =      3.36 TIME LEFT: 172796.55
 STEP:  46 TIME =     0.07 SECS, INTEGRAL =      3.44 TIME LEFT: 172796.47
 STEP:  47 TIME =     0.07 SECS, INTEGRAL =      3.51 TIME LEFT: 172796.40
 STEP:  48 TIME =     0.07 SECS, INTEGRAL =      3.58 TIME LEFT: 172796.33
 STEP:  49 TIME =     0.08 SECS, INTEGRAL =      3.66 TIME LEFT: 172796.26
 STEP:  50 TIME =     0.08 SECS, INTEGRAL =      3.73 TIME LEFT: 172796.18
 STEP:  51 TIME =     0.08 SECS, INTEGRAL =      3.81 TIME LEFT: 172796.10
 STEP:  52 TIME =     0.09 SECS, INTEGRAL =      3.90 TIME LEFT: 172796.01
 STEP:  53 TIME =     0.07 SECS, INTEGRAL =      3.97 TIME LEFT: 172795.94
 STEP:  54 TIME =     0.07 SECS, INTEGRAL =      4.04 TIME LEFT: 172795.87
 STEP:  55 TIME =     0.07 SECS, INTEGRAL =      4.11 TIME LEFT: 172795.80
 STEP:  56 TIME =     0.07 SECS, INTEGRAL =      4.19 TIME LEFT: 172795.72
 STEP:  57 TIME =     0.07 SECS, INTEGRAL =      4.26 TIME LEFT: 172795.65
 STEP:  58 TIME =     0.08 SECS, INTEGRAL =      4.34 TIME LEFT: 172795.57
 STEP:  59 TIME =     0.08 SECS, INTEGRAL =      4.42 TIME LEFT: 172795.49
 STEP:  60 TIME =     0.08 SECS, INTEGRAL =      4.50 TIME LEFT: 172795.41
 STEP:  61 TIME =     0.07 SECS, INTEGRAL =      4.57 TIME LEFT: 172795.34
 STEP:  62 TIME =     0.07 SECS, INTEGRAL =      4.64 TIME LEFT: 172795.27
 STEP:  63 TIME =     0.07 SECS, INTEGRAL =      4.72 TIME LEFT: 172795.19
 STEP:  64 TIME =     0.07 SECS, INTEGRAL =      4.79 TIME LEFT: 172795.12
 STEP:  65 TIME =     0.07 SECS, INTEGRAL =      4.86 TIME LEFT: 172795.05
 STEP:  66 TIME =     0.07 SECS, INTEGRAL =      4.94 TIME LEFT: 172794.98
 STEP:  67 TIME =     0.07 SECS, INTEGRAL =      5.01 TIME LEFT: 172794.90
 STEP:  68 TIME =     0.07 SECS, INTEGRAL =      5.08 TIME LEFT: 172794.83
 STEP:  69 TIME =     0.07 SECS, INTEGRAL =      5.15 TIME LEFT: 172794.76

(To convert to Hartree/Bohr^2, multiply by (10^(-21) x N x a0^2)/(4.184 x 627.51) = 0.0642)


           FORCE MATRIX IN MILLIDYNES/ANGSTROM


                  C  1       C  2       C  3       C  4       C  5       C  6
 ------------------------------------------------------------------------------
     C    1  14.894655
     C    2   5.362687  14.073688
     C    3   2.331482   5.097866  14.854812
     C    4   1.701906   2.243152   4.927592  14.020705
     C    5   2.396928   1.711356   2.388784   5.656421  14.129250
     C    6   5.400856   2.331015   1.738283   2.367646   5.415277  14.050871
     H    7   0.677109   3.379066   0.650760   0.089096   0.034080   0.093416
     H    8   0.023338   0.082410   0.629112   3.403520   0.676738   0.093484
     H    9   0.086609   0.016787   0.101741   0.665978   3.447810   0.656473
     H   10   0.662043   0.092988   0.035730   0.089703   0.663360   3.459694
     N   11   0.132605   1.106022   4.264245   1.073311   0.138784   0.106525
     C   12   0.062280   0.154267   0.908739   0.079284   0.051225   0.062314
     O   13   0.020338   0.051360   0.176223   0.132117   0.021095   0.021002
     C   14   0.005724   0.032887   0.117663   0.009946   0.004729   0.005816
     C   15   0.006172   0.010360   0.119277   0.030729   0.008622   0.005945
     H   16   0.001034   0.006961   0.026495   0.004240   0.001250   0.002241
     C   17   0.067089   0.105031   0.906817   0.133799   0.034415   0.051071
     H   18   0.000989   0.004181   0.022368   0.005137   0.001133   0.002093
     O   19   0.019468   0.143296   0.181986   0.044553   0.011639   0.020224
     C   20   3.398635   0.770790   0.144230   0.069994   0.096176   0.759263
     F   21   0.734940   0.030061   0.028727   0.010509   0.021949   0.032079
     F   22   0.692469   0.055154   0.024744   0.007121   0.021712   0.066303
     F   23   0.696794   0.065709   0.013683   0.011915   0.011847   0.053182


                  H  7       H  8       H  9       H 10       N 11       C 12
 ------------------------------------------------------------------------------
     H    7   4.206456
     H    8   0.011825   4.212631
     H    9   0.012672   0.029204   4.248131
     H   10   0.009104   0.011219   0.026838   4.256179
     N   11   0.054246   0.050020   0.024109   0.036682  13.767843
     C   12   0.030470   0.141855   0.015546   0.022908   2.821250  16.732294
     O   13   0.012765   0.097693   0.006514   0.008544   1.882793  11.143323
     C   14   0.005810   0.008307   0.002903   0.003273   1.102610   3.152405
     C   15   0.009614   0.005621   0.003324   0.003106   1.099883   1.075723
     H   16   0.002206   0.002167   0.001073   0.001037   0.083711   0.552084
     C   17   0.158986   0.033628   0.017052   0.023870   2.837270   2.204051
     H   18   0.001950   0.001772   0.000726   0.000769   0.072275   0.180268
     O   19   0.105012   0.014085   0.006727   0.008961   1.892348   0.511082
     C   20   0.069147   0.031813   0.019332   0.081149   0.024556   0.029324
     F   21   0.010289   0.006909   0.004805   0.009866   0.018565   0.013912
     F   22   0.044184   0.005942   0.005763   0.014911   0.018353   0.013206
     F   23   0.012738   0.005085   0.003585   0.051179   0.019751   0.014547


                  O 13       C 14       C 15       H 16       C 17       H 18
 ------------------------------------------------------------------------------
     O   13  13.283361
     C   14   1.085158  15.510253
     C   15   0.075887   9.452903  15.519422
     H   16   0.047650   3.475120   0.600141   4.183721
     C   17   0.509319   1.072587   3.167932   0.184341  16.733716
     H   18   0.042365   0.603560   3.477864   0.036413   0.562027   4.187096
     O   19   0.250501   0.077807   1.066039   0.046573  11.113379   0.051294
     C   20   0.014777   0.007806   0.006860   0.003589   0.024209   0.002142
     F   21   0.005873   0.002600   0.002342   0.000855   0.012686   0.000512
     F   22   0.004753   0.002387   0.002538   0.000859   0.012252   0.000559
     F   23   0.005573   0.002432   0.001706   0.001043   0.013065   0.000990


                  O 19       C 20       F 21       F 22       F 23
 ------------------------------------------------------------------
     O   19  13.246774
     C   20   0.018308  14.485292
     F   21   0.005188   5.380986   7.758081
     F   22   0.004715   5.437331   1.566029   7.847529
     F   23   0.006243   5.461995   1.567525   1.633431   7.891320


          HEAT OF FORMATION =    -192.983065 KCALS/MOLE

          ZERO POINT ENERGY      90.589 KCAL/MOL

         NOTE: SYSTEM IS NOT A GROUND STATE, THEREFORE ZERO POINT
         ENERGY IS NOT MEANINGFULL. ZERO POINT ENERGY PRINTED
         DOES NOT INCLUDE THE  1 IMAGINARY FREQUENCIES


           NORMAL COORDINATE ANALYSIS (Total motion = 1 Angstrom)


   Root No.       1         2         3         4         5         6         7         8

                 1 A       2 A       3 A       4 A       5 A       6 A       7 A       8 A   

                 -14.3      26.8      66.4     102.0     109.8     128.8     195.9     227.7
  
           1   -0.0002   -0.0070    0.0017   -0.0105    0.0078    0.0000    0.0248    0.0026
           2   -0.0002    0.0078   -0.0022    0.0179   -0.0137   -0.0010   -0.0335    0.0022
           3   -0.0053   -0.0123   -0.0024    0.0340    0.0402   -0.0540   -0.0019   -0.0067
           4   -0.0001   -0.0066    0.0016   -0.0114    0.0090    0.0003    0.0233    0.0015
           5   -0.0002    0.0053   -0.0016    0.0222   -0.0194   -0.0040    0.0029    0.0008
           6    0.0096    0.0043   -0.0387    0.0685    0.0742   -0.0044   -0.0030   -0.0553
           7   -0.0002   -0.0041    0.0009   -0.0119    0.0108    0.0017    0.0038   -0.0012
           8   -0.0002    0.0034   -0.0010    0.0210   -0.0193   -0.0048    0.0208    0.0008
           9   -0.0151   -0.0113   -0.0306    0.0353    0.0323    0.0533    0.0039   -0.0116
          10   -0.0003   -0.0021    0.0005   -0.0117    0.0119    0.0028   -0.0157   -0.0021
          11    0.0001    0.0050   -0.0016    0.0211   -0.0180   -0.0041    0.0062    0.0011
          12   -0.0520   -0.0426   -0.0007    0.0022   -0.0170    0.0917   -0.0014   -0.0634
          13   -0.0004   -0.0022    0.0007   -0.0127    0.0126    0.0024   -0.0168   -0.0015
          14    0.0003    0.0076   -0.0024    0.0174   -0.0123   -0.0015   -0.0275    0.0009
          15   -0.0636   -0.0581    0.0313   -0.0141   -0.0300    0.0067   -0.0069   -0.0093
          16   -0.0004   -0.0051    0.0015   -0.0129    0.0112    0.0006    0.0083    0.0006
          17    0.0002    0.0088   -0.0027    0.0163   -0.0105   -0.0002   -0.0407   -0.0005
          18   -0.0414   -0.0430    0.0338   -0.0051   -0.0044   -0.0803   -0.0024    0.0651
          19   -0.0002   -0.0099    0.0024   -0.0119    0.0078   -0.0012    0.0318    0.0022
          20   -0.0001    0.0034   -0.0011    0.0214   -0.0196   -0.0048    0.0076    0.0010
          21    0.0398    0.0293   -0.0697    0.1125    0.1227   -0.0088   -0.0084   -0.1043
          22   -0.0006   -0.0002   -0.0002   -0.0098    0.0111    0.0036   -0.0255   -0.0030
          23    0.0003    0.0041   -0.0012    0.0197   -0.0172   -0.0044    0.0107    0.0016
          24   -0.0694   -0.0527   -0.0002   -0.0135   -0.0459    0.1731   -0.0021   -0.1194
          25   -0.0004   -0.0004    0.0005   -0.0143    0.0153    0.0032   -0.0388   -0.0019
          26    0.0006    0.0089   -0.0028    0.0168   -0.0103   -0.0011   -0.0402    0.0006
          27   -0.0913   -0.0820    0.0564   -0.0391   -0.0655    0.0107   -0.0124   -0.0142
          28   -0.0005   -0.0053    0.0019   -0.0131    0.0108   -0.0004    0.0077    0.0020
          29    0.0006    0.0115   -0.0036    0.0139   -0.0053    0.0015   -0.0549   -0.0043
          30   -0.0528   -0.0546    0.0641   -0.0314   -0.0228   -0.1557    0.0016    0.1622
          31    0.0000   -0.0039    0.0008   -0.0124    0.0113    0.0019    0.0055   -0.0013
          32   -0.0002   -0.0009    0.0002    0.0058   -0.0064   -0.0032    0.0497   -0.0048
          33   -0.0031    0.0054   -0.0384    0.0278    0.0302    0.0698    0.0176    0.1253
          34    0.0003   -0.0001   -0.0001    0.0054   -0.0056   -0.0027    0.0403   -0.0059
          35   -0.0001   -0.0036    0.0011   -0.0080    0.0062   -0.0003    0.0302   -0.0037
          36    0.0490    0.0115   -0.0062   -0.0053   -0.0025    0.0049    0.0030    0.0240
          37    0.0009    0.0032   -0.0019    0.0211   -0.0204   -0.0068    0.0872   -0.0130
          38   -0.0002   -0.0024    0.0007   -0.0023    0.0012   -0.0015    0.0462   -0.0059
          39    0.0957    0.0029   -0.0596   -0.0462   -0.0366   -0.0437   -0.0052   -0.0189
          40    0.0002   -0.0015    0.0014   -0.0024    0.0017   -0.0011    0.0277   -0.0059
          41    0.0000   -0.0084    0.0025   -0.0325    0.0286    0.0049   -0.0160   -0.0012
          42    0.0346    0.0300    0.0854    0.0072    0.0029   -0.0053   -0.0018   -0.0198
          43   -0.0002   -0.0058    0.0028   -0.0241    0.0213    0.0032   -0.0093   -0.0039
          44    0.0001   -0.0084    0.0025   -0.0328    0.0289    0.0050   -0.0162   -0.0013
          45   -0.0176    0.0351    0.0839    0.0068    0.0036   -0.0057   -0.0028   -0.0105
          46    0.0006    0.0009    0.0014    0.0098   -0.0090   -0.0035    0.0479   -0.0068
          47    0.0000   -0.0112    0.0029   -0.0468    0.0412    0.0076   -0.0397   -0.0003
          48    0.0648    0.0373    0.1399    0.0143    0.0055   -0.0112   -0.0051   -0.0527
          49   -0.0005   -0.0077    0.0024   -0.0325    0.0288    0.0050   -0.0242   -0.0020
          50    0.0000   -0.0038    0.0010   -0.0090    0.0071   -0.0001    0.0314   -0.0050
          51   -0.0436    0.0197   -0.0108   -0.0056   -0.0020    0.0045    0.0037    0.0289
          52   -0.0004   -0.0079    0.0044   -0.0353    0.0317    0.0055   -0.0300   -0.0026
          53    0.0002   -0.0112    0.0036   -0.0467    0.0416    0.0078   -0.0415    0.0005
          54   -0.0413    0.0478    0.1371    0.0138    0.0072   -0.0122   -0.0071   -0.0317
          55   -0.0007   -0.0114    0.0028   -0.0512    0.0451    0.0085   -0.0639   -0.0003
          56    0.0000   -0.0026    0.0008   -0.0031    0.0019   -0.0013    0.0438   -0.0056
          57   -0.0896    0.0183   -0.0688   -0.0473   -0.0359   -0.0444   -0.0033   -0.0242
          58    0.0001    0.0022   -0.0008    0.0181   -0.0170   -0.0032    0.0054    0.0067
          59   -0.0001    0.0029   -0.0008    0.0022   -0.0007    0.0013   -0.0277    0.0018
          60    0.0192    0.0023    0.0045    0.0074    0.0101   -0.0188   -0.0001   -0.0064
          61   -0.0043    0.1226    0.0004    0.0099   -0.0443    0.0268   -0.0163    0.0127
          62    0.0249   -0.0507    0.0069   -0.0307   -0.0349    0.0528   -0.0244    0.0148
          63    0.0281    0.0048    0.0078   -0.0078   -0.0091    0.0083   -0.0020   -0.0007
          64    0.0029   -0.0377   -0.0075    0.0643   -0.0348   -0.0192   -0.0505    0.0012
          65   -0.0124    0.0368   -0.0067    0.0332    0.0054   -0.0243   -0.0608   -0.0036
          66    0.0423   -0.0957    0.0084   -0.0009   -0.0172    0.0084   -0.0004   -0.0017
          67    0.0023   -0.0487   -0.0029    0.0317   -0.0122   -0.0165    0.0008    0.0057
          68   -0.0124    0.0080    0.0018   -0.0237    0.0447   -0.0211    0.0255    0.0047
          69    0.0145    0.1136    0.0083   -0.0191   -0.0028    0.0112    0.0045   -0.0041


   Root No.       9        10        11        12        13        14        15        16

                 9 A      10 A      11 A      12 A      13 A      14 A      15 A      16 A   

                 251.1     255.4     285.5     327.1     348.8     400.1     403.8     429.4
  
           1    0.0015    0.0473   -0.0018   -0.0174    0.0219   -0.0464    0.0038    0.0352
           2   -0.0004   -0.0081   -0.0028    0.0094   -0.0272    0.0175   -0.0018   -0.0196
           3    0.0009    0.0030    0.0025    0.0011    0.0014   -0.0025   -0.0396   -0.0009
           4    0.0012    0.0355   -0.0011   -0.0193    0.0215   -0.0452    0.0035    0.0301
           5   -0.0003   -0.0064   -0.0070    0.0405   -0.0533   -0.0442    0.0017   -0.0138
           6    0.0018    0.0233    0.0891    0.0016   -0.0128   -0.0015    0.0168    0.0005
           7    0.0001   -0.0028   -0.0003   -0.0258   -0.0002   -0.0154    0.0006   -0.0173
           8    0.0001    0.0089   -0.0066    0.0436   -0.0434   -0.0643    0.0038    0.0102
           9    0.0011    0.0068    0.0160    0.0018   -0.0015   -0.0051   -0.0436    0.0004
          10    0.0001   -0.0103   -0.0046   -0.0695   -0.0403    0.0140   -0.0028    0.0188
          11    0.0001    0.0033   -0.0088    0.0236   -0.0682   -0.0513    0.0015    0.0303
          12    0.0054    0.0055   -0.0460    0.0028    0.0087   -0.0035   -0.0463   -0.0004
          13    0.0001   -0.0099   -0.0043   -0.0776   -0.0415    0.0163   -0.0023    0.0254
          14   -0.0003   -0.0106   -0.0077   -0.0046   -0.0655    0.0092   -0.0030    0.0133
          15   -0.0005    0.0001    0.0365   -0.0019   -0.0084    0.0065    0.0813    0.0004
          16    0.0009    0.0192   -0.0053   -0.0593   -0.0262   -0.0260    0.0004    0.0575
          17   -0.0007   -0.0232   -0.0066   -0.0141   -0.0648    0.0323   -0.0032   -0.0074
          18   -0.0044   -0.0076    0.0436   -0.0015   -0.0041   -0.0045   -0.0519   -0.0002
          19    0.0011    0.0386   -0.0055   -0.0005    0.0173   -0.0695    0.0051    0.0492
          20   -0.0004   -0.0044   -0.0091    0.0504   -0.0544   -0.0574    0.0029   -0.0016
          21    0.0007    0.0426    0.1776    0.0003   -0.0251    0.0055    0.1131    0.0009
          22   -0.0001   -0.0228   -0.0044   -0.0851   -0.0483    0.0485   -0.0056    0.0299
          23    0.0002    0.0096   -0.0089    0.0311   -0.0630   -0.0679    0.0028    0.0231
          24    0.0115    0.0050   -0.1394    0.0043    0.0228   -0.0060   -0.0980   -0.0007
          25   -0.0004   -0.0252   -0.0024   -0.0939   -0.0429    0.0589   -0.0035    0.0000
          26   -0.0006   -0.0202   -0.0070   -0.0139   -0.0668    0.0338   -0.0058   -0.0022
          27   -0.0016   -0.0016    0.0690   -0.0044   -0.0189    0.0195    0.2426    0.0012
          28    0.0008    0.0189   -0.0049   -0.0592   -0.0261   -0.0250   -0.0008    0.0559
          29   -0.0010   -0.0440   -0.0108   -0.0401   -0.0941    0.0615   -0.0041   -0.0120
          30   -0.0100   -0.0188    0.0631   -0.0018   -0.0022   -0.0112   -0.1198    0.0002
          31   -0.0005   -0.0146    0.0005   -0.0118   -0.0003   -0.0178    0.0012   -0.0354
          32   -0.0001   -0.0124    0.0026   -0.0057    0.0058   -0.0085    0.0007    0.0018
          33   -0.0066   -0.0223   -0.0193   -0.0011    0.0006    0.0030    0.0234   -0.0002
          34   -0.0016   -0.0346    0.0039    0.0150    0.0037   -0.0247    0.0017   -0.0462
          35    0.0001   -0.0091    0.0021   -0.0236    0.0061    0.0059   -0.0003    0.0173
          36   -0.0547   -0.0021   -0.0053   -0.0007    0.0000    0.0009    0.0058    0.0000
          37   -0.0009   -0.0791    0.0124    0.0448    0.0269    0.0612   -0.0036    0.0490
          38   -0.0002   -0.0243    0.0050   -0.0136    0.0139    0.0373   -0.0022    0.0541
          39    0.0545    0.0017    0.0026   -0.0003   -0.0003   -0.0010   -0.0016   -0.0003
          40   -0.0025   -0.0370    0.0039    0.0194    0.0035   -0.0248    0.0016   -0.0658
          41    0.0002   -0.0095    0.0006   -0.0142   -0.0023    0.0147   -0.0011   -0.0052
          42   -0.1105    0.0076    0.0001   -0.0005    0.0000    0.0005   -0.0028    0.0009
          43    0.0003   -0.0341    0.0030    0.0161    0.0019   -0.0084    0.0005   -0.0694
          44   -0.0005   -0.0115    0.0008   -0.0104   -0.0020    0.0169   -0.0012   -0.0025
          45    0.1113   -0.0024    0.0046    0.0005   -0.0002   -0.0003   -0.0014    0.0009
          46   -0.0049   -0.0341    0.0040    0.0148    0.0047   -0.0354    0.0023   -0.0571
          47    0.0020   -0.0128    0.0005   -0.0095   -0.0036    0.0273   -0.0019   -0.0153
          48   -0.2523    0.0192    0.0012   -0.0010    0.0001    0.0001   -0.0101    0.0010
          49   -0.0004   -0.0283    0.0019    0.0120    0.0005   -0.0017    0.0001   -0.0511
          50   -0.0008   -0.0222    0.0036   -0.0048    0.0075    0.0044   -0.0001   -0.0187
          51    0.0501   -0.0070   -0.0034   -0.0003    0.0001    0.0004    0.0062   -0.0003
          52    0.0023   -0.0286    0.0020    0.0078   -0.0003    0.0001   -0.0002   -0.0661
          53   -0.0003   -0.0050   -0.0005   -0.0208   -0.0047    0.0278   -0.0020    0.0011
          54    0.2587   -0.0043    0.0122    0.0017   -0.0006   -0.0013   -0.0070    0.0020
          55   -0.0031   -0.0405    0.0011    0.1000   -0.0133    0.0052   -0.0002    0.0603
          56   -0.0001   -0.0186    0.0040   -0.0329    0.0120    0.0022   -0.0001   -0.0584
          57   -0.0509    0.0065    0.0015   -0.0012    0.0000    0.0000   -0.0014   -0.0004
          58    0.0018    0.0573   -0.0055    0.0100   -0.0044   -0.0089    0.0012    0.0088
          59   -0.0002    0.0010    0.0002   -0.0028    0.0154    0.0037    0.0007   -0.0057
          60    0.0010   -0.0030   -0.0430    0.0009    0.0088    0.0020   -0.0018   -0.0009
          61    0.0003    0.0543    0.0392    0.0138   -0.0169    0.0498   -0.0145   -0.0243
          62   -0.0014    0.0307    0.0807    0.0000    0.0601   -0.0187   -0.0170    0.0121
          63    0.0002    0.0047   -0.0057    0.0017    0.0183    0.0035   -0.0091   -0.0003
          64    0.0000   -0.0099   -0.0283   -0.0063    0.0548    0.0019    0.0200    0.0065
          65   -0.0010   -0.0416   -0.0226   -0.0143    0.0877   -0.0115    0.0036    0.0048
          66    0.0005    0.0026   -0.0283    0.0047   -0.0278    0.0306    0.0154   -0.0182
          67    0.0025    0.0685   -0.0156    0.0148   -0.0065    0.0148   -0.0082   -0.0019
          68    0.0046    0.1155   -0.0454    0.0308    0.0294    0.0367    0.0172   -0.0132
          69   -0.0002   -0.0153   -0.0247   -0.0066    0.0156   -0.0314    0.0214    0.0186


   Root No.      17        18        19        20        21        22        23        24

                17 A      18 A      19 A      20 A      21 A      22 A      23 A      24 A   

                 482.3     523.5     549.6     557.7     580.4     594.3     609.8     638.9
  
           1    0.0015    0.0204    0.0243    0.0001    0.0136    0.0000    0.0581   -0.0004
           2   -0.0018   -0.0165   -0.0152   -0.0001   -0.0254    0.0009    0.0561   -0.0025
           3    0.0574   -0.0007   -0.0003    0.0016   -0.0011   -0.0387    0.0073    0.1422
           4    0.0009    0.0254    0.0237    0.0000    0.0069    0.0002    0.0591   -0.0009
           5    0.0010   -0.0134    0.0168   -0.0006   -0.0539   -0.0005   -0.0482    0.0008
           6   -0.0183   -0.0001    0.0004    0.0003    0.0000   -0.0295   -0.0010   -0.0197
           7   -0.0004    0.0056    0.0008   -0.0005   -0.0685    0.0003    0.0051   -0.0006
           8    0.0028    0.0047    0.0288   -0.0003   -0.0126   -0.0010   -0.0264    0.0008
           9   -0.0655    0.0012    0.0007   -0.0028   -0.0008    0.1431   -0.0024   -0.0020
          10    0.0011   -0.0006   -0.0096    0.0001   -0.0108   -0.0008   -0.0560    0.0015
          11    0.0029   -0.0007    0.0308    0.0000    0.0277   -0.0004   -0.0513    0.0010
          12   -0.0056   -0.0002   -0.0003    0.0007    0.0002   -0.0407   -0.0002   -0.0117
          13    0.0012    0.0026   -0.0104    0.0001   -0.0035   -0.0002   -0.0622    0.0019
          14    0.0002   -0.0153   -0.0090    0.0003    0.0499    0.0007    0.0639   -0.0028
          15    0.0318   -0.0003    0.0003   -0.0006   -0.0001    0.0283    0.0014    0.0241
          16    0.0020    0.0231    0.0199    0.0004    0.0632    0.0001    0.0028   -0.0013
          17    0.0001   -0.0222   -0.0253    0.0001    0.0077    0.0006    0.0350   -0.0007
          18   -0.0482    0.0005   -0.0005   -0.0002    0.0001   -0.0177   -0.0007   -0.0264
          19    0.0011    0.0330    0.0381   -0.0002    0.0323    0.0013    0.0302    0.0036
          20    0.0014   -0.0078    0.0252   -0.0006   -0.0371   -0.0004   -0.0615    0.0025
          21   -0.0151   -0.0026   -0.0017   -0.0043    0.0026   -0.1956   -0.0094   -0.2414
          22    0.0001   -0.0105   -0.0243    0.0004    0.0362    0.0001   -0.0231    0.0000
          23    0.0033    0.0043    0.0371   -0.0002    0.0023   -0.0010   -0.0637    0.0017
          24    0.0333   -0.0021   -0.0016   -0.0012    0.0040   -0.2748    0.0007   -0.0965
          25    0.0002   -0.0132   -0.0447    0.0000   -0.0337    0.0006   -0.0335    0.0018
          26   -0.0014   -0.0248   -0.0291    0.0002    0.0293    0.0010    0.0753   -0.0023
          27    0.1098   -0.0016    0.0013   -0.0029    0.0011    0.0384    0.0005   -0.0082
          28    0.0005    0.0222    0.0187    0.0004    0.0596   -0.0004    0.0013   -0.0045
          29    0.0002   -0.0311   -0.0428    0.0002   -0.0039    0.0010   -0.0426    0.0066
          30   -0.1538    0.0007   -0.0010   -0.0028    0.0029   -0.0492   -0.0115   -0.2751
          31    0.0003    0.0031    0.0018   -0.0012   -0.0627   -0.0009    0.0055   -0.0007
          32    0.0009    0.0303   -0.0256    0.0003    0.0002    0.0002    0.0055   -0.0002
          33    0.0242   -0.0002   -0.0003   -0.0776    0.0010   -0.0289    0.0007    0.0058
          34    0.0012    0.0401   -0.0450    0.0015   -0.0106   -0.0001   -0.0098    0.0000
          35    0.0008    0.0356   -0.0353    0.0000   -0.0689   -0.0005    0.0061   -0.0010
          36    0.0063   -0.0013    0.0014    0.1309   -0.0007   -0.0052   -0.0001   -0.0025
          37   -0.0018   -0.0415    0.0368   -0.0004    0.0195   -0.0001   -0.0022    0.0004
          38   -0.0003    0.0037   -0.0017    0.0001   -0.0675   -0.0005    0.0120   -0.0011
          39   -0.0013    0.0008   -0.0008   -0.0385   -0.0001    0.0006    0.0001    0.0009
          40    0.0007    0.0259   -0.0345   -0.0001    0.0171    0.0001   -0.0109    0.0003
          41   -0.0007   -0.0270    0.0235    0.0000   -0.0062   -0.0003   -0.0143    0.0007
          42   -0.0019   -0.0004    0.0004   -0.0104   -0.0001    0.0014    0.0002    0.0008
          43   -0.0012   -0.0354    0.0316   -0.0003    0.0162    0.0001    0.0111   -0.0007
          44   -0.0007   -0.0282    0.0241    0.0000    0.0022   -0.0003   -0.0149    0.0008
          45   -0.0020    0.0006   -0.0003   -0.0081    0.0000    0.0018   -0.0003   -0.0012
          46    0.0017    0.0671   -0.0746   -0.0030   -0.0201   -0.0001   -0.0110   -0.0001
          47   -0.0020   -0.0750    0.0704    0.0007    0.0338   -0.0001   -0.0136    0.0011
          48   -0.0095   -0.0003    0.0001   -0.2749    0.0011    0.0091    0.0006    0.0055
          49   -0.0014   -0.0453    0.0457    0.0009   -0.0136   -0.0002    0.0147   -0.0008
          50    0.0005    0.0243   -0.0373    0.0001    0.0723    0.0007   -0.0073    0.0007
          51    0.0070    0.0006   -0.0011    0.1301    0.0002   -0.0067    0.0002    0.0027
          52   -0.0023   -0.0718    0.0744   -0.0048   -0.0231   -0.0002    0.0191   -0.0013
          53   -0.0020   -0.0737    0.0771   -0.0012   -0.0428   -0.0008   -0.0053    0.0001
          54   -0.0106    0.0021   -0.0012   -0.2690   -0.0003    0.0115   -0.0008   -0.0047
          55    0.0014    0.0387   -0.0391    0.0002    0.0194    0.0003   -0.0026    0.0000
          56   -0.0006   -0.0078   -0.0054   -0.0002    0.0706    0.0007   -0.0001    0.0005
          57   -0.0013   -0.0006    0.0006   -0.0386   -0.0001    0.0008    0.0000   -0.0006
          58   -0.0020   -0.0620   -0.0305   -0.0001   -0.0072    0.0009    0.0347   -0.0021
          59   -0.0015    0.0317    0.0166    0.0000   -0.0117    0.0008    0.0684   -0.0030
          60    0.0865   -0.0008    0.0002   -0.0010    0.0001    0.0200   -0.0025   -0.0312
          61    0.0050    0.0566    0.0247    0.0002    0.0022   -0.0059   -0.0086    0.0113
          62    0.0002   -0.0287   -0.0133    0.0005    0.0038   -0.0115   -0.0166    0.0228
          63    0.0889   -0.0016   -0.0008   -0.0009    0.0077    0.0197   -0.0460   -0.0306
          64   -0.0787   -0.0132   -0.0087    0.0005    0.0105   -0.0098   -0.0440    0.0157
          65    0.0405    0.0368    0.0217   -0.0005    0.0007    0.0128    0.0051   -0.0216
          66   -0.0622    0.0578    0.0276    0.0002   -0.0047   -0.0053    0.0250    0.0044
          67    0.0714   -0.0447   -0.0250   -0.0007   -0.0036    0.0159    0.0241   -0.0249
          68   -0.0430    0.0011   -0.0026    0.0002    0.0056   -0.0020   -0.0391    0.0024
          69   -0.0699   -0.0556   -0.0267    0.0002   -0.0029   -0.0054    0.0203    0.0071


   Root No.      25        26        27        28        29        30        31        32

                25 A      26 A      27 A      28 A      29 A      30 A      31 A      32 A   

                 645.3     674.7     718.7     830.4     867.8     870.4     904.3     924.5
  
           1    0.0126    0.0003   -0.0073    0.0002    0.0270    0.0026    0.0000   -0.0012
           2    0.0074    0.0001   -0.0271    0.0007    0.0265    0.0026    0.0003    0.0007
           3   -0.0002   -0.0045   -0.0001    0.0321   -0.0011    0.0001    0.0514   -0.0313
           4    0.0099    0.0002   -0.0026    0.0006    0.0384    0.0038    0.0008    0.0019
           5   -0.0105    0.0001   -0.0290    0.0006    0.0403    0.0038   -0.0006    0.0015
           6   -0.0002    0.0013   -0.0007    0.0001   -0.0012   -0.0022   -0.1284    0.0091
           7   -0.0004    0.0000   -0.0142    0.0014    0.0696    0.0065   -0.0004    0.0020
           8   -0.0026    0.0002   -0.0079   -0.0005    0.0117    0.0011   -0.0006   -0.0018
           9    0.0000    0.0013    0.0014    0.0297   -0.0003   -0.0017    0.0553    0.0220
          10   -0.0087   -0.0001   -0.0424    0.0001   -0.0067   -0.0006   -0.0005   -0.0029
          11   -0.0097    0.0002   -0.0017    0.0000   -0.0590   -0.0056    0.0027    0.0007
          12    0.0001   -0.0004   -0.0008   -0.0354    0.0011   -0.0001   -0.0131   -0.0694
          13   -0.0119   -0.0002   -0.0480    0.0004   -0.0159   -0.0014    0.0007    0.0008
          14    0.0067    0.0001    0.0890   -0.0003    0.0189    0.0017   -0.0005    0.0009
          15    0.0000   -0.0002    0.0008   -0.0340    0.0009    0.0011    0.0034   -0.0017
          16    0.0008    0.0001    0.0512   -0.0016   -0.0177   -0.0017   -0.0001    0.0003
          17    0.0024   -0.0002    0.0251    0.0002    0.0253    0.0024   -0.0014   -0.0026
          18    0.0001    0.0006   -0.0010   -0.0349   -0.0003    0.0015    0.0053    0.0716
          19    0.0004   -0.0001    0.0056    0.0006    0.0234    0.0019   -0.0100   -0.0008
          20   -0.0157    0.0000   -0.0224    0.0003    0.0306    0.0027   -0.0044   -0.0001
          21    0.0003    0.0028   -0.0008   -0.0560    0.0084    0.0120    0.5956   -0.0480
          22    0.0023    0.0000   -0.0008    0.0025   -0.0193   -0.0018    0.0008    0.0046
          23   -0.0152    0.0001   -0.0218   -0.0016   -0.0468   -0.0044    0.0016   -0.0040
          24    0.0000    0.0035    0.0035    0.2133   -0.0072   -0.0001    0.0216    0.3581
          25   -0.0081   -0.0003   -0.0626    0.0029    0.0630    0.0061   -0.0037   -0.0027
          26    0.0079   -0.0001    0.0737   -0.0032    0.0628    0.0060   -0.0030   -0.0012
          27   -0.0002    0.0047    0.0057    0.3162   -0.0057   -0.0082    0.0027    0.0026
          28    0.0005    0.0002    0.0473    0.0015   -0.0157   -0.0017   -0.0012   -0.0053
          29   -0.0143   -0.0007   -0.0033   -0.0032   -0.0049   -0.0003    0.0012    0.0087
          30    0.0006    0.0084    0.0036    0.2107    0.0036   -0.0087   -0.0700   -0.3564
          31   -0.0005   -0.0001    0.0226    0.0001    0.0252    0.0021   -0.0003    0.0008
          32   -0.0293   -0.0013    0.0014    0.0000    0.0083    0.0008   -0.0001    0.0002
          33   -0.0001   -0.0014   -0.0002   -0.0045    0.0012   -0.0154   -0.0061   -0.0025
          34    0.0714   -0.0002    0.0232   -0.0002   -0.0137   -0.0006    0.0000    0.0000
          35   -0.0247   -0.0006    0.0388   -0.0005   -0.0312   -0.0033    0.0003   -0.0004
          36    0.0031   -0.1457    0.0000    0.0004   -0.0050    0.0472   -0.0027   -0.0008
          37    0.0303    0.0014   -0.0173    0.0003    0.0156    0.0017   -0.0002    0.0004
          38   -0.0562   -0.0011    0.0333   -0.0006   -0.0326   -0.0034    0.0004   -0.0006
          39   -0.0013    0.0365    0.0003   -0.0003    0.0007   -0.0084    0.0005   -0.0001
          40    0.0765    0.0020    0.0258   -0.0008   -0.0463   -0.0059    0.0006   -0.0009
          41    0.1123    0.0032    0.0049   -0.0001   -0.0017    0.0002    0.0000    0.0000
          42   -0.0019    0.0429   -0.0004   -0.0006    0.0062   -0.0550    0.0015    0.0008
          43   -0.0795   -0.0021    0.0233   -0.0009   -0.0440   -0.0049    0.0009   -0.0012
          44    0.1105    0.0033   -0.0009    0.0000    0.0025    0.0005   -0.0001    0.0000
          45    0.0023   -0.0425   -0.0005   -0.0007    0.0065   -0.0548    0.0023    0.0006
          46    0.0890    0.0037    0.0496   -0.0009   -0.0617    0.0005    0.0002   -0.0008
          47    0.0951    0.0030   -0.0207    0.0001    0.0143   -0.0037    0.0004   -0.0002
          48   -0.0064    0.2563    0.0002    0.0052   -0.0351    0.3416   -0.0061   -0.0045
          49   -0.0715    0.0007    0.0231   -0.0003   -0.0115   -0.0006   -0.0001    0.0001
          50   -0.0249   -0.0014   -0.0414    0.0006    0.0224    0.0023   -0.0002    0.0003
          51   -0.0034    0.1469   -0.0004   -0.0005   -0.0047    0.0472   -0.0017   -0.0010
          52   -0.0941   -0.0052    0.0475   -0.0011   -0.0526    0.0003    0.0008   -0.0012
          53    0.0894    0.0032    0.0264   -0.0003   -0.0060    0.0008    0.0000    0.0000
          54    0.0071   -0.2581    0.0009    0.0075   -0.0369    0.3407   -0.0110   -0.0017
          55   -0.0283   -0.0013   -0.0184    0.0003    0.0129    0.0012    0.0000    0.0003
          56   -0.0559   -0.0020   -0.0368    0.0007    0.0268    0.0028   -0.0005    0.0006
          57    0.0014   -0.0371    0.0001    0.0001    0.0007   -0.0084    0.0000    0.0003
          58    0.0060    0.0000   -0.0289    0.0004   -0.0141   -0.0013    0.0003   -0.0011
          59    0.0134    0.0003   -0.0534   -0.0003   -0.0256   -0.0024    0.0002    0.0002
          60   -0.0001    0.0007    0.0008   -0.0012    0.0008    0.0001   -0.0002   -0.0011
          61   -0.0009   -0.0003    0.0014    0.0018   -0.0027   -0.0002    0.0025   -0.0016
          62   -0.0026   -0.0008    0.0026    0.0035   -0.0078   -0.0007    0.0045   -0.0028
          63   -0.0086    0.0006    0.0400   -0.0047    0.0362    0.0034   -0.0069    0.0046
          64   -0.0081   -0.0006    0.0341    0.0013    0.0219    0.0021    0.0008   -0.0006
          65    0.0031    0.0008   -0.0193   -0.0029   -0.0220   -0.0021   -0.0037    0.0019
          66    0.0053   -0.0001   -0.0230    0.0000   -0.0173   -0.0016   -0.0001    0.0001
          67    0.0049    0.0006   -0.0287   -0.0036   -0.0364   -0.0035   -0.0036    0.0027
          68   -0.0064    0.0000    0.0191   -0.0006    0.0069    0.0006   -0.0006    0.0009
          69    0.0034   -0.0002   -0.0173   -0.0003   -0.0190   -0.0018   -0.0002    0.0004


   Root No.      33        34        35        36        37        38        39        40

                33 A      34 A      35 A      36 A      37 A      38 A      39 A      40 A   

                 950.4     975.1     980.0    1009.4    1040.0    1081.5    1102.0    1129.3
  
           1    0.0002   -0.0386    0.0018   -0.0031   -0.0110    0.0026   -0.0387   -0.0101
           2    0.0002   -0.0651    0.0020   -0.0067    0.0017   -0.0188    0.0139    0.0336
           3    0.0000    0.0016   -0.0116    0.0001    0.0000   -0.0001    0.0005    0.0006
           4    0.0002   -0.0700    0.0022   -0.0071    0.0035   -0.0155    0.0263    0.0312
           5    0.0001    0.0736   -0.0027   -0.0008   -0.0277   -0.0042   -0.0044    0.0569
           6   -0.0006   -0.0003   -0.0012    0.0001    0.0000   -0.0004    0.0005    0.0004
           7    0.0001    0.0346   -0.0016   -0.0008   -0.0041   -0.0166    0.0185   -0.0056
           8    0.0001   -0.0058    0.0011    0.0038   -0.0085    0.0266   -0.0385   -0.0344
           9   -0.0001   -0.0005   -0.0109    0.0002   -0.0003    0.0009   -0.0012   -0.0008
          10    0.0000   -0.0256    0.0017    0.0000    0.0002    0.0036   -0.0247   -0.0365
          11   -0.0001   -0.0602    0.0006   -0.0123    0.0329   -0.0407    0.0346   -0.0171
          12    0.0006    0.0027    0.0534   -0.0005    0.0009   -0.0011    0.0018    0.0013
          13    0.0000   -0.0201   -0.0006    0.0010   -0.0004    0.0065    0.0209    0.0372
          14    0.0000    0.0273   -0.0007   -0.0020    0.0044   -0.0193    0.0205    0.0071
          15   -0.0004   -0.0038   -0.0812    0.0003   -0.0003    0.0000   -0.0001   -0.0004
          16   -0.0001    0.0925   -0.0020    0.0063   -0.0108    0.0095   -0.0020    0.0140
          17    0.0001   -0.0214    0.0011    0.0022   -0.0052    0.0203   -0.0325   -0.0357
          18    0.0003    0.0013    0.0527   -0.0002    0.0000    0.0003   -0.0011   -0.0011
          19   -0.0001   -0.0530    0.0023   -0.0075   -0.0153    0.0292   -0.0753   -0.0245
          20   -0.0001    0.0756   -0.0023   -0.0013   -0.0359    0.0243   -0.0595    0.0240
          21    0.0026    0.0031    0.0183   -0.0006   -0.0008    0.0023   -0.0028   -0.0004
          22   -0.0001   -0.0115   -0.0056    0.0074    0.0068   -0.0069    0.0344    0.0647
          23    0.0000   -0.0639    0.0051   -0.0155    0.0264   -0.0297    0.0025   -0.0685
          24   -0.0028   -0.0118   -0.2092    0.0021   -0.0039    0.0057   -0.0084   -0.0056
          25    0.0002   -0.0578    0.0067    0.0154   -0.0545    0.1278   -0.1496   -0.0379
          26    0.0001   -0.0025   -0.0016    0.0060   -0.0265    0.0527   -0.0793   -0.0380
          27    0.0018    0.0185    0.3409   -0.0014    0.0015   -0.0019    0.0018    0.0014
          28   -0.0001    0.0857   -0.0052    0.0061   -0.0108    0.0105   -0.0035    0.0142
          29    0.0000   -0.0230    0.0070    0.0068    0.0096    0.0424    0.0768    0.0575
          30   -0.0011   -0.0103   -0.1993    0.0007    0.0006    0.0007    0.0044    0.0026
          31    0.0000    0.0241   -0.0007   -0.0025    0.0158   -0.0238    0.0284   -0.0382
          32   -0.0001   -0.0137    0.0008    0.0445    0.0022    0.1421    0.0439   -0.0059
          33   -0.0001   -0.0003    0.0009    0.0003    0.0000    0.0004   -0.0001    0.0003
          34    0.0004    0.0041   -0.0003    0.0746    0.0444   -0.0408   -0.0039   -0.0163
          35    0.0003   -0.0018   -0.0001    0.0141    0.0061   -0.0452   -0.0120   -0.0022
          36   -0.0274   -0.0001    0.0004   -0.0005   -0.0009    0.0002    0.0002    0.0000
          37    0.0001    0.0054   -0.0003    0.0033    0.0053   -0.0017    0.0012   -0.0018
          38   -0.0005   -0.0083    0.0003   -0.0294   -0.0225   -0.0197   -0.0113    0.0075
          39    0.0051    0.0000    0.0001   -0.0002    0.0001    0.0001   -0.0001    0.0001
          40    0.0008   -0.0220    0.0008   -0.0741   -0.0580    0.0323   -0.0023    0.0196
          41   -0.0004   -0.0016    0.0001   -0.0048   -0.0037    0.0024    0.0014   -0.0013
          42    0.0884    0.0004   -0.0006    0.0001    0.0012    0.0000   -0.0002    0.0000
          43   -0.0006   -0.0292    0.0015    0.0815   -0.0504   -0.0173   -0.0170    0.0233
          44    0.0001    0.0000    0.0000   -0.0033    0.0023    0.0036   -0.0016    0.0022
          45   -0.0885    0.0002    0.0003   -0.0002    0.0007    0.0000    0.0001   -0.0002
          46   -0.0095   -0.0007   -0.0009   -0.2007    0.1257    0.0728   -0.1044    0.1146
          47    0.0074   -0.0259    0.0020    0.1598   -0.2084   -0.0534    0.1161   -0.1112
          48   -0.3728   -0.0008    0.0027    0.0065   -0.0060   -0.0024    0.0032   -0.0030
          49   -0.0005    0.0064   -0.0007   -0.0783    0.0347    0.0372    0.0137   -0.0233
          50    0.0001    0.0099   -0.0003    0.0117   -0.0032   -0.0459   -0.0118    0.0062
          51    0.0277    0.0001    0.0000    0.0005   -0.0004   -0.0003   -0.0001    0.0003
          52    0.0059   -0.0257    0.0012    0.1793    0.1357    0.0714   -0.0864    0.1127
          53    0.0010    0.0031   -0.0002    0.1345    0.2226    0.1021   -0.0872    0.1122
          54    0.3735    0.0009   -0.0011   -0.0063   -0.0027    0.0000    0.0013   -0.0015
          55   -0.0002    0.0067   -0.0003   -0.0032    0.0051   -0.0001    0.0019   -0.0015
          56   -0.0002    0.0177   -0.0009   -0.0325    0.0202   -0.0261   -0.0034   -0.0067
          57   -0.0052   -0.0001    0.0000    0.0000    0.0000   -0.0001    0.0000    0.0000
          58    0.0000    0.0003   -0.0007   -0.0010   -0.0014   -0.0048   -0.0016    0.0136
          59    0.0000    0.0006    0.0003   -0.0005   -0.0001   -0.0036   -0.0017    0.0097
          60    0.0000   -0.0005   -0.0008    0.0000    0.0000    0.0001   -0.0002   -0.0013
          61    0.0000    0.0048   -0.0006    0.0005    0.0002    0.0011    0.0001   -0.0022
          62    0.0000    0.0104   -0.0013    0.0011    0.0008    0.0020    0.0010   -0.0042
          63    0.0001   -0.0334    0.0026   -0.0031   -0.0019   -0.0055   -0.0021    0.0106
          64    0.0001   -0.0194    0.0006   -0.0015   -0.0004   -0.0024   -0.0007    0.0033
          65   -0.0001    0.0253   -0.0005    0.0021    0.0006    0.0040    0.0001   -0.0069
          66   -0.0001    0.0170   -0.0007    0.0014    0.0004    0.0024    0.0003   -0.0038
          67   -0.0001    0.0327   -0.0003    0.0034    0.0035    0.0063    0.0044   -0.0129
          68    0.0000   -0.0034    0.0004   -0.0003    0.0003   -0.0007    0.0007    0.0003
          69   -0.0001    0.0160   -0.0003    0.0017    0.0016    0.0030    0.0020   -0.0061


   Root No.      41        42        43        44        45        46        47        48

                41 A      42 A      43 A      44 A      45 A      46 A      47 A      48 A   

                1186.9    1198.5    1219.8    1225.0    1242.3    1246.8    1260.4    1333.5
  
           1   -0.0127   -0.0177    0.0026    0.0103    0.0088    0.0115   -0.0018   -0.0067
           2   -0.0272   -0.0237    0.0021    0.0155    0.0220   -0.0164    0.0080   -0.0341
           3   -0.0005   -0.0002    0.0004    0.0016   -0.0261   -0.0007   -0.0010   -0.0002
           4    0.0257    0.0360    0.0017   -0.0087    0.0004    0.0019   -0.0199   -0.0235
           5    0.0154   -0.0083    0.0064    0.0192    0.0104   -0.0027   -0.0165   -0.0124
           6    0.0001   -0.0002   -0.0001   -0.0004    0.0057   -0.0001    0.0008    0.0002
           7   -0.0098   -0.0012   -0.0125   -0.0456   -0.0165   -0.0059    0.0060   -0.0161
           8   -0.0141    0.0080   -0.0004    0.0011    0.0004    0.0157   -0.0064    0.0073
           9   -0.0004    0.0002    0.0001    0.0002    0.0016    0.0001    0.0002    0.0001
          10    0.0020   -0.0341   -0.0101   -0.0197   -0.0125    0.0228    0.0026   -0.0096
          11    0.0172   -0.0038   -0.0044   -0.0178   -0.0100   -0.0155   -0.0042    0.0230
          12    0.0009    0.0002    0.0001    0.0002    0.0000   -0.0001   -0.0006    0.0002
          13    0.0040    0.0125    0.0052    0.0157    0.0117   -0.0149    0.0047   -0.0288
          14    0.0414   -0.0041   -0.0060   -0.0190   -0.0124    0.0012   -0.0050   -0.0099
          15   -0.0002    0.0003   -0.0001   -0.0005    0.0014   -0.0001    0.0002    0.0002
          16   -0.0431   -0.0058    0.0046    0.0158    0.0121   -0.0208    0.0144    0.0085
          17   -0.0341    0.0004   -0.0014   -0.0054    0.0000    0.0202    0.0238   -0.0257
          18    0.0003   -0.0005   -0.0002   -0.0005    0.0069    0.0007    0.0008   -0.0002
          19    0.0730    0.0948    0.0362    0.0638   -0.0029    0.1571   -0.0493   -0.0366
          20    0.0416    0.0281    0.0263    0.0620    0.0106    0.0851   -0.0346   -0.0241
          21    0.0015    0.0018    0.0012    0.0030   -0.0153    0.0028   -0.0030   -0.0010
          22    0.1867   -0.1334   -0.0203    0.0763   -0.0060    0.2108   -0.2205    0.1416
          23   -0.0791    0.0518    0.0010   -0.0691   -0.0140   -0.1161    0.1137   -0.0566
          24   -0.0046    0.0011    0.0004   -0.0003   -0.0034   -0.0017    0.0033   -0.0011
          25    0.1892    0.1269    0.0421    0.0534    0.0123   -0.2064   -0.0619    0.1321
          26    0.1461    0.0678    0.0164    0.0034   -0.0116   -0.1129   -0.0414    0.0859
          27    0.0016   -0.0016   -0.0002    0.0004   -0.0056    0.0003   -0.0002   -0.0008
          28   -0.0402   -0.0041    0.0052    0.0171    0.0119   -0.0199    0.0130    0.0048
          29   -0.1479    0.3124    0.0459    0.0358    0.0072    0.1590    0.0752    0.1424
          30   -0.0038    0.0084    0.0011    0.0012   -0.0234    0.0021   -0.0118    0.0017
          31    0.0027    0.0035   -0.0110   -0.0333   -0.0207    0.0043   -0.0002    0.0638
          32    0.0008   -0.0153   -0.0199    0.0027   -0.0022   -0.0030    0.0055    0.0009
          33    0.0000   -0.0001    0.0000    0.0005    0.0001   -0.0001    0.0000   -0.0006
          34    0.0042    0.0034    0.0122    0.0617    0.0253   -0.0047   -0.0004   -0.0247
          35    0.0007    0.0035    0.0129    0.0227    0.0107   -0.0026    0.0003   -0.0136
          36    0.0000   -0.0001    0.0004   -0.0006   -0.0003    0.0000    0.0000    0.0002
          37   -0.0019    0.0020   -0.0048   -0.0016   -0.0010   -0.0020    0.0021    0.0008
          38    0.0002    0.0003    0.0102   -0.0082   -0.0017    0.0027   -0.0027    0.0014
          39    0.0000    0.0000   -0.0001    0.0000    0.0000    0.0001    0.0000    0.0000
          40   -0.0022   -0.0084    0.0486   -0.0392   -0.0092    0.0029   -0.0012    0.0015
          41    0.0000    0.0033   -0.0306    0.0096    0.0007   -0.0010    0.0009    0.0005
          42    0.0000    0.0002   -0.0012    0.0004    0.0001    0.0000    0.0000    0.0000
          43   -0.0035    0.0067   -0.0617   -0.0086   -0.0075   -0.0004    0.0014    0.0006
          44   -0.0007    0.0033   -0.0322    0.0074    0.0001   -0.0012    0.0012   -0.0011
          45    0.0000   -0.0001    0.0008    0.0001    0.0002    0.0000    0.0000    0.0000
          46   -0.0109    0.0187   -0.1940   -0.0400   -0.0281    0.0005    0.0034    0.0104
          47    0.0105   -0.0264    0.2428    0.0236    0.0272    0.0010   -0.0045   -0.0167
          48    0.0002   -0.0007    0.0063    0.0005    0.0004    0.0000   -0.0001   -0.0003
          49    0.0039   -0.0030    0.0225    0.0600    0.0252   -0.0042    0.0003   -0.0251
          50   -0.0008    0.0040   -0.0010   -0.0236   -0.0095    0.0029   -0.0010    0.0112
          51    0.0000    0.0000   -0.0002   -0.0009   -0.0004    0.0001   -0.0001    0.0004
          52   -0.0076   -0.0210    0.1453   -0.1362   -0.0339    0.0109   -0.0046    0.0133
          53   -0.0062   -0.0284    0.2061   -0.1547   -0.0363    0.0127   -0.0056    0.0208
          54    0.0002    0.0003   -0.0023    0.0017    0.0004   -0.0001   -0.0001   -0.0001
          55   -0.0010   -0.0017    0.0033   -0.0043   -0.0013   -0.0009    0.0003    0.0027
          56    0.0000    0.0006    0.0138    0.0021    0.0020   -0.0002   -0.0010    0.0006
          57    0.0000    0.0000    0.0000    0.0001    0.0001    0.0000    0.0001    0.0000
          58    0.0096   -0.0173    0.0053    0.0221   -0.0160    0.0023    0.2179    0.0538
          59   -0.0385   -0.0176    0.0060    0.0269    0.0018   -0.0159   -0.1151    0.0823
          60    0.0036   -0.0009   -0.0041   -0.0165    0.3340    0.0027    0.0103    0.0097
          61    0.0032    0.0022   -0.0009   -0.0038    0.0253    0.0013    0.0001   -0.0038
          62    0.0061    0.0043   -0.0018   -0.0077    0.0507    0.0022    0.0014   -0.0076
          63   -0.0148   -0.0100    0.0045    0.0189   -0.1366   -0.0054   -0.0037    0.0170
          64   -0.0120   -0.0045    0.0006    0.0031    0.0372   -0.0040   -0.0400    0.0104
          65    0.0198    0.0074   -0.0013   -0.0065   -0.0590    0.0067    0.0626   -0.0188
          66    0.0118    0.0042   -0.0007   -0.0036   -0.0373    0.0038    0.0381   -0.0109
          67    0.0024    0.0135   -0.0028   -0.0121   -0.0567   -0.0001   -0.0864   -0.0265
          68    0.0010   -0.0005   -0.0002   -0.0005    0.0014   -0.0005    0.0017   -0.0013
          69    0.0009    0.0061   -0.0013   -0.0055   -0.0279   -0.0002   -0.0406   -0.0122


   Root No.      49        50        51        52        53        54        55        56

                49 A      50 A      51 A      52 A      53 A      54 A      55 A      56 A   

                1339.0    1403.4    1491.1    1511.6    1620.3    1642.9    1744.2    1746.2
  
           1   -0.0340   -0.0005    0.0941    0.0004    0.0343    0.1618   -0.0037    0.0011
           2   -0.0032    0.0797    0.0364    0.0645   -0.1032   -0.0590    0.0023   -0.0008
           3    0.0001    0.0004   -0.0002    0.0004   -0.0011   -0.0011    0.0000    0.0000
           4   -0.0065   -0.0009   -0.0451   -0.0495    0.0545   -0.1373    0.0015    0.0008
           5   -0.0057   -0.0047    0.0480   -0.0311    0.0978   -0.0300   -0.0043    0.0028
           6   -0.0003    0.0000    0.0001   -0.0001    0.0001    0.0001    0.0001    0.0000
           7   -0.0098   -0.0831   -0.0645    0.0853   -0.0074    0.0595   -0.0024   -0.0044
           8   -0.0327    0.0167   -0.0733   -0.0339   -0.1677   -0.0063    0.0193   -0.0098
           9    0.0003    0.0006    0.0004   -0.0008   -0.0006   -0.0006    0.0001    0.0000
          10    0.0029   -0.0610    0.0651   -0.0160   -0.0278   -0.1515   -0.0006    0.0017
          11   -0.0039   -0.0019   -0.0006    0.0564    0.0818    0.0351   -0.0048    0.0019
          12   -0.0002    0.0005   -0.0009    0.0007    0.0008    0.0020    0.0000    0.0000
          13    0.0231    0.0284   -0.0370   -0.0539   -0.0534    0.1525    0.0033   -0.0024
[...]
 VIBRATION   44   44A       ATOM PAIR        ENERGY CONTRIBUTION    RADIAL
 FREQ.      1224.99        C 12 --  C 14           +9.8% ( 43.8%)    79.8%
 T-DIPOLE    3.0315        N 11 --  C 12           +9.4% ( 42.9%)    52.4%
 TRAVEL      0.0747        N 11 --  C 17           +9.3% ( 42.7%)    61.9%
 RED. MASS   1.0225        C 15 --  H 18           +6.1% ( 34.5%)     2.2%
 EFF. MASS   9.8566

 VIBRATION   45   45A       ATOM PAIR        ENERGY CONTRIBUTION    RADIAL
 FREQ.      1242.34        C 20 --  F 21          +30.2% ( 90.7%)    93.3%
 T-DIPOLE    4.6473        C 20 --  F 22          +21.0% ( 75.7%)    44.2%
 TRAVEL      0.0624        C 20 --  F 23          +19.7% ( 73.3%)    30.8%
 RED. MASS   6.2459        C  1 --  C 20          +17.8% ( 69.7%)     0.8%
 EFF. MASS  13.9594

 VIBRATION   46   46A       ATOM PAIR        ENERGY CONTRIBUTION    RADIAL
 FREQ.      1246.80        C  4 --  H  8          +22.5% ( 53.2%)     0.2%
 T-DIPOLE    0.3943        C  5 --  H  9          +18.5% ( 48.3%)     1.3%
 TRAVEL      0.1334        C  2 --  H  7          +13.2% ( 40.9%)     0.1%
 RED. MASS   0.2552        C  6 --  H 10          +10.8% ( 36.9%)    24.4%
 EFF. MASS   3.0373

 VIBRATION   47   47A       ATOM PAIR        ENERGY CONTRIBUTION    RADIAL
 FREQ.      1260.40        C 20 --  F 23          +27.2% ( 85.0%)    83.4%
 T-DIPOLE    3.0221        C 20 --  F 22          +25.1% ( 81.6%)    74.6%
 TRAVEL      0.0641        C  1 --  C 20          +17.7% ( 68.5%)     0.0%
 RED. MASS   5.6868        C 20 --  F 21          +17.6% ( 68.4%)     0.5%
 EFF. MASS  13.0015

 VIBRATION   48   48A       ATOM PAIR        ENERGY CONTRIBUTION    RADIAL
 FREQ.      1333.54        C  1 --  C 20          +14.5% ( 57.5%)    99.2%
 T-DIPOLE    1.9073        C 20 --  F 23          +13.6% ( 55.7%)    52.4%
 TRAVEL      0.0693        C 20 --  F 22          +12.7% ( 53.7%)    39.4%
 RED. MASS   1.8365        C 20 --  F 21          +11.8% ( 51.9%)    24.3%
 EFF. MASS  10.5149

 VIBRATION   49   49A       ATOM PAIR        ENERGY CONTRIBUTION    RADIAL
 FREQ.      1339.02        C  2 --  H  7          +38.2% ( 71.9%)     0.0%
 T-DIPOLE    0.8459        C  4 --  H  8           +7.8% ( 32.6%)     0.1%
 TRAVEL      0.1176        C  1 --  C 20           +7.3% ( 31.5%)    85.2%
 RED. MASS   0.4450        C  3 --  N 11           +5.5% ( 27.3%)    41.6%
 EFF. MASS   3.6395

 VIBRATION   50   50A       ATOM PAIR        ENERGY CONTRIBUTION    RADIAL
 FREQ.      1403.43        C  3 --  N 11          +17.0% ( 62.3%)    98.1%
 T-DIPOLE    4.7553        C  1 --  C 20           +9.4% ( 46.3%)    88.8%
 TRAVEL      0.0634        N 11 --  C 17           +8.4% ( 43.7%)    50.9%
 RED. MASS   1.7486        N 11 --  C 12           +8.2% ( 43.3%)    37.4%
 EFF. MASS  11.9452

 VIBRATION   51   51A       ATOM PAIR        ENERGY CONTRIBUTION    RADIAL
 FREQ.      1491.10        C  1 --  C  2          +13.9% ( 53.5%)    99.3%
 T-DIPOLE    2.8321        C  2 --  C  3          +12.0% ( 49.7%)    87.9%
 TRAVEL      0.0651        C  1 --  C  6          +11.4% ( 48.4%)     3.9%
 RED. MASS   1.6689        C  3 --  C  4          +11.2% ( 48.1%)     0.1%
 EFF. MASS  10.6603

 VIBRATION   52   52A       ATOM PAIR        ENERGY CONTRIBUTION    RADIAL
 FREQ.      1511.65        C  3 --  C  4          +14.9% ( 53.8%)    91.0%
 T-DIPOLE    2.9616        C  2 --  C  3          +13.0% ( 50.3%)    22.4%
 TRAVEL      0.0675        C  3 --  N 11          +11.6% ( 47.5%)    89.7%
 RED. MASS   1.4102        C  2 --  H  7           +8.3% ( 40.1%)     0.0%
 EFF. MASS   9.7842

 VIBRATION   53   53A       ATOM PAIR        ENERGY CONTRIBUTION    RADIAL
 FREQ.      1620.28        C  2 --  C  3          +15.3% ( 54.5%)    92.1%
 T-DIPOLE    0.5341        C  1 --  C  6          +15.3% ( 54.4%)    83.5%
 TRAVEL      0.0590        C  5 --  C  6          +14.9% ( 53.7%)    90.0%
 RED. MASS   2.4524        C  3 --  C  4          +12.8% ( 49.7%)    80.5%
 EFF. MASS  11.9558

 VIBRATION   54   54A       ATOM PAIR        ENERGY CONTRIBUTION    RADIAL
 FREQ.      1642.87        C  4 --  C  5          +17.9% ( 58.8%)   100.0%
 T-DIPOLE    1.8020        C  1 --  C  2          +17.7% ( 58.5%)    99.1%
 TRAVEL      0.0586        C  1 --  C  6          +11.8% ( 47.7%)    57.9%
 RED. MASS   2.5399        C  5 --  C  6           +9.3% ( 42.4%)    34.3%
 EFF. MASS  11.9666

 VIBRATION   55   55A       ATOM PAIR        ENERGY CONTRIBUTION    RADIAL
 FREQ.      1744.20        C 12 --  O 13          +22.2% ( 66.4%)    99.5%
 T-DIPOLE   12.5402        C 17 --  O 19          +19.6% ( 62.4%)    99.0%
 TRAVEL      0.0543        C 12 --  C 14          +14.1% ( 53.0%)    39.9%
 RED. MASS   2.4079        C 14 --  C 15          +10.2% ( 45.1%)    99.1%
 EFF. MASS  13.1059        C 15 --  C 17          +10.0% ( 44.7%)    97.3%

 VIBRATION   56   56A       ATOM PAIR        ENERGY CONTRIBUTION    RADIAL
 FREQ.      1746.19        C 14 --  C 15          +37.6% ( 89.3%)    99.9%
 T-DIPOLE    5.4568        C 15 --  C 17          +15.5% ( 57.3%)    26.9%
 TRAVEL      0.0563        C 12 --  C 14          +11.4% ( 49.1%)     2.8%
 RED. MASS   3.6466        C 15 --  H 18          +11.0% ( 48.3%)    15.7%
 EFF. MASS  12.1840

 VIBRATION   57   57A       ATOM PAIR        ENERGY CONTRIBUTION    RADIAL
 FREQ.      1852.35        C 12 --  O 13          +26.0% ( 68.2%)    99.8%
 T-DIPOLE    0.3084        C 17 --  O 19          +25.3% ( 67.2%)    99.8%
 TRAVEL      0.0524        C 12 --  C 14          +12.2% ( 46.7%)    60.1%
 RED. MASS   3.4378        C 15 --  C 17          +11.9% ( 46.2%)    60.4%
 EFF. MASS  13.2360        N 11 --  C 12          +11.9% ( 46.1%)    24.9%
                           N 11 --  C 17          +11.6% ( 45.6%)    24.8%

 VIBRATION   58   58A       ATOM PAIR        ENERGY CONTRIBUTION    RADIAL
 FREQ.      2700.75        C  2 --  H  7          +89.3% ( 95.5%)   100.0%
 T-DIPOLE    1.6144        C  4 --  H  8           +8.0% ( 28.6%)   100.0%
 TRAVEL      0.1339        C  1 --  C  2           +1.0% ( 10.1%)    21.8%
 RED. MASS   0.7814        C  2 --  C  3           +1.0% ( 10.1%)    21.9%
 EFF. MASS   1.3932

 VIBRATION   59   59A       ATOM PAIR        ENERGY CONTRIBUTION    RADIAL
 FREQ.      2707.58        C  4 --  H  8          +79.4% ( 90.2%)   100.0%
 T-DIPOLE    1.1617        C  5 --  H  9          +12.0% ( 35.1%)    99.8%
 TRAVEL      0.1334        C  2 --  H  7           +6.1% ( 25.0%)   100.0%
 RED. MASS   0.6324        C  4 --  C  5           +0.9% (  9.8%)     4.5%
 EFF. MASS   1.3987

 VIBRATION   60   60A       ATOM PAIR        ENERGY CONTRIBUTION    RADIAL
 FREQ.      2710.01        C 14 --  H 16          +49.2% ( 71.2%)    99.9%
 T-DIPOLE    1.6438        C 15 --  H 18          +48.5% ( 70.7%)    99.9%
 TRAVEL      0.1333        C 14 --  C 15           +0.9% (  9.5%)     0.0%
 RED. MASS   0.4650        C 12 --  C 14           +0.7% (  8.6%)    14.3%
 EFF. MASS   1.4002

 VIBRATION   61   61A       ATOM PAIR        ENERGY CONTRIBUTION    RADIAL
 FREQ.      2720.91        C  6 --  H 10          +46.8% ( 69.2%)   100.0%
 T-DIPOLE    1.0923        C  5 --  H  9          +46.4% ( 68.9%)   100.0%
 TRAVEL      0.1338        C  4 --  H  8           +4.5% ( 21.5%)    99.7%
 RED. MASS   0.4231        C  5 --  C  6           +0.9% (  9.6%)     0.0%
 EFF. MASS   1.3841

 VIBRATION   62   62A       ATOM PAIR        ENERGY CONTRIBUTION    RADIAL
 FREQ.      2730.19        C 15 --  H 18          +47.6% ( 70.1%)    99.9%
 T-DIPOLE    1.8407        C 14 --  H 16          +46.8% ( 69.5%)    99.9%
 TRAVEL      0.1256        C 14 --  C 15           +2.4% ( 15.6%)   100.0%
 RED. MASS   0.4500        C 15 --  C 17           +0.8% (  9.3%)    12.5%
 EFF. MASS   1.5648

 VIBRATION   63   63A       ATOM PAIR        ENERGY CONTRIBUTION    RADIAL
 FREQ.      2735.04        C  6 --  H 10          +49.6% ( 71.1%)   100.0%
 T-DIPOLE    1.2353        C  5 --  H  9          +38.7% ( 62.7%)   100.0%
 TRAVEL      0.1305        C  4 --  H  8           +5.6% ( 23.9%)    99.9%
 RED. MASS   0.3903        C  2 --  H  7           +2.0% ( 14.3%)    99.9%
 EFF. MASS   1.4481

 SYMMETRY NUMBER FOR POINT-GROUP C1  =  1


          SYSTEM IS A GROUND STATE


                                                                                                                                                                                                                                                 
 SJ000001528-1_T001S001I001C01: Free energy calculation                                                                                                                                                                                          


          MOLECULE IS NOT LINEAR

          THERE ARE 63 GENUINE VIBRATIONS IN THIS SYSTEM
          THIS THERMODYNAMICS CALCULATION IS LIMITED TO
          MOLECULES WHICH HAVE NO INTERNAL ROTATIONS




                    CALCULATED THERMODYNAMIC PROPERTIES
                                          *
   TEMP. (K)   PARTITION FUNCTION   H.O.F.    ENTHALPY  HEAT CAPACITY ENTROPY
                                   KCAL/MOL   CAL/MOLE    CAL/K/MOL  CAL/K/MOL


 298.00  VIB.     0.2200D+06                  7137.9933    47.0138    48.3987
         ROT.     0.3570D+07                   888.2813     2.9808    32.9639
         INT.     0.7855D+12                  8026.2746    49.9946    81.3626
         TRA.     0.3621D+28                  1480.4688     4.9680    42.3399
         TOT.                     -192.983    9506.7434    54.9626   123.7025

 200.00  VIB.     0.4081D+04                  3254.9076    32.0489    32.7962
         ROT.     0.1963D+07                   596.1620     2.9808    31.7752
         INT.     0.8009D+10                  3851.0695    35.0297    64.5713
         TRA.     0.1991D+28                   993.6033     4.9680    40.3587
         TOT.                     -197.645    4844.6728    39.9977   104.9301

 210.00  VIB.     0.6144D+04                  3583.2510    33.6188    34.3978
         ROT.     0.2112D+07                   625.9700     2.9808    31.9206
         INT.     0.1297D+11                  4209.2211    36.5997    66.3184
         TRA.     0.2142D+28                  1043.2834     4.9680    40.6011
         TOT.                     -197.237    5252.5045    41.5677   106.9196

 220.00  VIB.     0.9244D+04                  3927.2630    35.1824    35.9979
         ROT.     0.2264D+07                   655.7781     2.9808    32.0593
         INT.     0.2093D+11                  4583.0412    38.1632    68.0572
         TRA.     0.2297D+28                  1092.9636     4.9680    40.8322
         TOT.                     -196.814    5676.0047    43.1312   108.8894

 230.00  VIB.     0.1390D+05                  4286.8734    36.7383    37.5962
         ROT.     0.2421D+07                   685.5862     2.9808    32.1918
         INT.     0.3365D+11                  4972.4596    39.7191    69.7880
         TRA.     0.2455D+28                  1142.6437     4.9680    41.0531
         TOT.                     -196.375    6115.1034    44.6872   110.8410

 240.00  VIB.     0.2090D+05                  4662.0001    38.2854    39.1925
         ROT.     0.2580D+07                   715.3943     2.9808    32.3186
         INT.     0.5392D+11                  5377.3944    41.2662    71.5111
         TRA.     0.2617D+28                  1192.3239     4.9680    41.2645
         TOT.                     -195.920    6569.7183    46.2343   112.7756

 250.00  VIB.     0.3140D+05                  5052.5481    39.8224    40.7865
         ROT.     0.2743D+07                   745.2024     2.9808    32.4403
         INT.     0.8612D+11                  5797.7506    42.8032    73.2269
         TRA.     0.2782D+28                  1242.0041     4.9680    41.4673
         TOT.                     -195.450    7039.7546    47.7712   114.6942

 260.00  VIB.     0.4714D+05                  5458.4089    41.3477    42.3782
         ROT.     0.2909D+07                   775.0105     2.9808    32.5572
         INT.     0.1372D+12                  6233.4195    44.3286    74.9354
         TRA.     0.2951D+28                  1291.6842     4.9680    41.6622
         TOT.                     -194.965    7525.1037    49.2966   116.5976

 270.00  VIB.     0.7076D+05                  5879.4597    42.8601    43.9670
         ROT.     0.3079D+07                   804.8186     2.9808    32.6697
         INT.     0.2179D+12                  6684.2784    45.8409    76.6368
         TRA.     0.3123D+28                  1341.3644     4.9680    41.8497
         TOT.                     -194.464    8025.6427    50.8090   118.4864

 280.00  VIB.     0.1062D+06                  6315.5635    44.3581    45.5529
         ROT.     0.3251D+07                   834.6267     2.9808    32.7781
         INT.     0.3452D+12                  7150.1903    47.3389    78.3310
         TRA.     0.3298D+28                  1391.0445     4.9680    42.0303
         TOT.                     -193.949    8541.2348    52.3069   120.3614

 290.00  VIB.     0.1592D+06                  6766.5694    45.8403    47.1354
         ROT.     0.3427D+07                   864.4348     2.9808    32.8827
         INT.     0.5455D+12                  7631.0042    48.8211    80.0181
         TRA.     0.3476D+28                  1440.7247     4.9680    42.2047
         TOT.                     -193.418    9071.7289    53.7891   122.2228

 300.00  VIB.     0.2386D+06                  7232.3126    47.3054    48.7142
         ROT.     0.3606D+07                   894.2429     2.9808    32.9838
         INT.     0.8603D+12                  8126.5555    50.2862    81.6980
         TRA.     0.3657D+28                  1490.4049     4.9680    42.3731
         TOT.                     -192.873    9616.9604    55.2542   124.0711

 310.00  VIB.     0.3574D+06                  7712.6157    48.7521    50.2889
         ROT.     0.3788D+07                   924.0510     2.9808    33.0815
         INT.     0.1354D+13                  8636.6667    51.7329    83.3705
         TRA.     0.3842D+28                  1540.0850     4.9680    42.5360
         TOT.                     -192.313   10176.7517    56.7009   125.9065

 320.00  VIB.     0.5351D+06                  8207.2891    50.1793    51.8594
         ROT.     0.3972D+07                   953.8591     2.9808    33.1762
         INT.     0.2126D+13                  9161.1482    53.1601    85.0355
         TRA.     0.4029D+28                  1589.7652     4.9680    42.6937
         TOT.                     -191.739   10750.9134    58.1281   127.7293

 330.00  VIB.     0.8007D+06                  8716.1324    51.5859    53.4250
         ROT.     0.4160D+07                   983.6672     2.9808    33.2679
         INT.     0.3331D+13                  9699.7996    54.5667    86.6929
         TRA.     0.4219D+28                  1639.4454     4.9680    42.8466
         TOT.                     -191.151   11339.2449    59.5347   129.5395

 340.00  VIB.     0.1197D+07                  9238.9352    52.9710    54.9857
         ROT.     0.4351D+07                  1013.4753     2.9808    33.3569
         INT.     0.5209D+13                 10252.4105    55.9518    88.3425
         TRA.     0.4413D+28                  1689.1255     4.9680    42.9949
         TOT.                     -190.548   11941.5360    60.9199   131.3375

 350.00  VIB.     0.1790D+07                  9775.4786    54.3339    56.5409
         ROT.     0.4544D+07                  1043.2834     2.9808    33.4433
         INT.     0.8132D+13                 10818.7620    57.3147    89.9842
         TRA.     0.4609D+28                  1738.8057     4.9680    43.1389
         TOT.                     -189.932   12557.5677    62.2827   133.1231

 360.00  VIB.     0.2673D+07                 10325.5362    55.6738    58.0903
         ROT.     0.4740D+07                  1073.0915     2.9808    33.5273
         INT.     0.1267D+14                 11398.6277    58.6546    91.6176
         TRA.     0.4808D+28                  1788.4859     4.9680    43.2789
         TOT.                     -189.303   13187.1136    63.6226   134.8965

 370.00  VIB.     0.3990D+07                 10888.8756    56.9901    59.6337
         ROT.     0.4939D+07                  1102.8996     2.9808    33.6089
         INT.     0.1971D+14                 11991.7752    59.9709    93.2427
         TRA.     0.5009D+28                  1838.1660     4.9680    43.4150
         TOT.                     -188.660   13829.9412    64.9390   136.6577

 380.00  VIB.     0.5952D+07                 11465.2591    58.2825    61.1708
         ROT.     0.5140D+07                  1132.7077     2.9808    33.6884
         INT.     0.3060D+14                 12597.9668    61.2634    94.8592
         TRA.     0.5214D+28                  1887.8462     4.9680    43.5475
         TOT.                     -188.004   14485.8130    66.2314   138.4067

 390.00  VIB.     0.8873D+07                 12054.4454    59.5506    62.7012
         ROT.     0.5345D+07                  1162.5158     2.9808    33.7659
         INT.     0.4742D+14                 13216.9612    62.5315    96.4670
         TRA.     0.5421D+28                  1937.5263     4.9680    43.6765
         TOT.                     -187.335   15154.4876    67.4995   140.1435

 400.00  VIB.     0.1322D+08                 12656.1903    60.7942    64.2246
         ROT.     0.5552D+07                  1192.3239     2.9808    33.8413
         INT.     0.7337D+14                 13848.5142    63.7750    98.0659
         TRA.     0.5631D+28                  1987.2065     4.9680    43.8023
         TOT.                     -186.654   15835.7207    68.7431   141.8682

   *: NOTE: HEATS OF FORMATION ARE RELATIVE TO THE
             ELEMENTS IN THEIR STANDARD STATE AT 298K
              (=  Standard Enthalpy of Formation).
            Heat of Formation at T is calculated as [Escf + (HT - H298.15)-.

            Hvib:  Zero-point energy is not included.
                   Wi < 100 cm-1 are not included.
            Hrot = (3/2)RT
            Htra = (3/2)RT + pV = (5/2)RT

            Heat capacity is Cp, not Cv

                 See Section 8.20 in Manual for further information.   (by TH).

           FORCE CONSTANT IN CARTESIAN COORDINATES (Millidynes/A)

    ATOM   CHEMICAL       X               Y               Z
   NUMBER   SYMBOL  FORCE CONSTANT  FORCE CONSTANT  FORCE CONSTANT

      1       C       10.604496       10.171103        2.496284
      2       C       10.116869        9.467943        2.093567
      3       C       10.413750       10.420658        2.168393
      4       C       10.373647        9.215334        2.133555
      5       C       10.108145        9.531440        2.214428
      6       C        9.551755       10.115929        2.182483
      7       H        1.765731        3.310301        0.337710
      8       H        1.627377        3.395648        0.354514
      9       H        1.683912        3.289943        0.368585
     10       H        4.153621        0.882641        0.353285
     11       N       11.191669        7.966131        0.748161
     12       C        7.718196       13.656450        2.321967
     13       O        2.476869       11.844905        0.333793
     14       C        7.329105       13.458886        1.989913
     15       C        7.406373       13.419733        1.978041
     16       H        2.642215        2.164177        0.348002
     17       C        7.543191       13.825600        2.333071
     18       H        2.726900        2.085294        0.347747
     19       O        2.291646       11.991163        0.339974
     20       C        8.410963        8.896639        7.766568
     21       F        1.076333        1.521317        6.832739
     22       F        2.718131        4.466399        2.449686
     23       F        6.435944        0.993221        2.255651



 TOTAL CPU TIME:             7.77 SECONDS

 == MOPAC DONE ==
