 *******************************************************************************
 ** Site#:  958            For non-commercial use only         Version 9.015L **
 *******************************************************************************
 ** Cite this work as: MOPAC2009, James J. P. Stewart, Stewart Computational  **
 ** Chemistry, Version 9.015L web: HTTP://OpenMOPAC.net                       **
 *******************************************************************************
 **                                                                           **
 **                                MOPAC2009                                  **
 **                                                                           **
 *******************************************************************************

                            PM6 CALCULATION RESULTS


 *******************************************************************************
 *  CALCULATION DONE:                                Thu Sep  8 17:15:47 2011  *
 *  PM6      - The PM6 Hamiltonian to be used
 *  PDBOUT   - PRINT GEOMETY IN PDB FORMAT
 *  MOZYME   - USE LOCALIZED M.O.s IN SOLVING THE SCF EQUATIONS
 *
 *
 *
 *                 CHARGE ON SYSTEM =     0
 *
 *
 *
 *  EPS= 78.400
 *  RSOLV=  1.300
 *  LET      - OVERRIDE SOME SAFETY CHECKS
 *  XYZ      - CARTESIAN COORDINATE SYSTEM TO BE USED
 *  LBFGS    - USE THE LBFGS GEOMETRY OPTIMIZER
 *  1SCF     - DO 1 SCF AND THEN STOP 
 *  T=       - A TIME OF  0.3E+08 SECONDS REQUESTED
 *  DUMP=N   - RESTART FILE WRITTEN EVERY  4320.000 SECONDS
 *  DDMIN=   - MINIMUM TRUST RADIUS  0.000 ANG/RAD
 *  GNORM=   - EXIT WHEN GRADIENT NORM DROPS BELOW .150    
 *  RELSCF   - DEFAULT SCF CRITERION MULTIPLIED BY   0.100    
 *             (DEFAULT SCFCRT= 0.00010)
 *  MULLIK   - THE MULLIKEN ANALYSIS TO BE PERFORMED
 *******************************************************************************
 PM6 T=31359905 DUMP=4320 XYZ EPS=78.40 RSOLV=1.30 MULLIK LBFGS MOZYME PDBOUT +
 CHARGE=0 RELSCF=0.1 LET DDMIN=0.0 GNORM=0.15 1SCF
 SJ000002349-1_T001S001I001C09_001: Geometry optimization step

   ATOM   CHEMICAL          X               Y              Z
  NUMBER   SYMBOL      (ANGSTROMS)     (ANGSTROMS)    (ANGSTROMS)
 
     1       C         -5.1290000  *  -20.946000  *    9.725000  *
     2       C         -3.7800000  *  -21.203000  *   10.396000  *
     3       C         -3.7270000  *  -22.608000  *   10.948000  *
     4       C         -4.8630000  *  -23.186000  *   11.397000  *
     5       C         -4.7770000  *  -24.597000  *   11.941000  *
     6       C         -3.4010000  *  -25.232000  *   11.926000  *
     7       C         -2.3710000  *  -24.505000  *   11.443000  *
     8       C         -0.9870000  *  -25.107000  *   11.418000  *
     9       C         -0.8050000  *  -26.069000  *   12.592000  *
    10       C         -1.8500000  *  -27.170000  *   12.397000  *
    11       C         -3.2170000  *  -26.537000  *   12.401000  *
    12       O         -4.1690000  *  -27.164000  *   12.822000  *
    13       O         -2.5550000  *  -23.259000  *   10.982000  *
    14       C         -6.0900000  *  -22.511000  *   11.369000  *
    15       O         -7.0890000  *  -23.059000  *   11.790000  *
    16       C         -6.1820000  *  -21.110000  *   10.823000  *
    17       H         -2.9830000  *  -21.073000  *    9.665000  *
    18       H         -3.6410000  *  -20.492000  *   11.211000  *
    19       H         -5.1330000  *  -24.588000  *   12.971000  *
    20       H         -0.8460000  *  -25.648000  *   10.482000  *
    21       H         -0.2460000  *  -24.310000  *   11.487000  *
    22       H         -1.6810000  *  -27.670000  *   11.443000  *
    23       H         -1.7770000  *  -27.892000  *   13.209000  *
    24       H         -5.9940000  *  -20.392000  *   11.621000  *
    25       H         -7.1750000  *  -20.944000  *   10.406000  *
    26       C         -5.7040000  *  -25.469000  *   11.133000  *
    27       C         -6.8940000  *  -25.918000  *   11.689000  *
    28       C         -7.7460000  *  -26.719000  *   10.946000  *
    29       C         -7.4080000  *  -27.070000  *    9.648000  *
    30       H         -8.6730000  *  -27.070000  *   11.377000  *
    31       C         -6.2170000  *  -26.620000  *    9.096000  *
    32       C         -5.3720000  *  -25.816000  *    9.837000  *
    33       H         -5.9540000  *  -26.893000  *    8.085000  *
    34       H         -4.4450000  *  -25.466000  *    9.406000  *
    35       O         -7.2220000  *  -25.570000  *   12.961000  *
    36       H         -7.1250000  *  -24.627000  *   13.149000  *
    37       O         -8.2430000  *  -27.856000  *    8.917000  *
    38       H         -7.7860000  *  -28.501000  *    8.359000  *
    39       C         -5.1740000  *  -19.525000  *    9.158000  *
    40       H         -4.9020000  *  -19.547000  *    8.102000  *
    41       H         -6.1820000  *  -19.123000  *    9.266000  *
    42       H         -4.4710000  *  -18.895000  *    9.701000  *
    43       C         -5.3660000  *  -21.966000  *    8.609000  *
    44       H         -6.2610000  *  -22.546000  *    8.831000  *
    45       H         -5.4970000  *  -21.444000  *    7.661000  *
    46       H         -4.5080000  *  -22.634000  *    8.539000  *
    47       C          0.6020000  *  -26.668000  *   12.571000  *
    48       H          0.5430000  *  -27.728000  *   12.324000  *
    49       H          1.2050000  *  -26.153000  *   11.821000  *
    50       H          1.0630000  *  -26.548000  *   13.551000  *
    51       C         -1.0480000  *  -25.339000  *   13.915000  *
    52       H         -0.1520000  *  -25.395000  *   14.531000  *
    53       H         -1.2860000  *  -24.295000  *   13.715000  *
    54       H         -1.8810000  *  -25.808000  *   14.440000  *
 


          CARTESIAN COORDINATES 

    NO.       ATOM         X         Y         Z

     1         C       -5.1290  -20.9460    9.7250
     2         C       -3.7800  -21.2030   10.3960
     3         C       -3.7270  -22.6080   10.9480
     4         C       -4.8630  -23.1860   11.3970
     5         C       -4.7770  -24.5970   11.9410
     6         C       -3.4010  -25.2320   11.9260
     7         C       -2.3710  -24.5050   11.4430
     8         C       -0.9870  -25.1070   11.4180
     9         C       -0.8050  -26.0690   12.5920
    10         C       -1.8500  -27.1700   12.3970
    11         C       -3.2170  -26.5370   12.4010
    12         O       -4.1690  -27.1640   12.8220
    13         O       -2.5550  -23.2590   10.9820
    14         C       -6.0900  -22.5110   11.3690
    15         O       -7.0890  -23.0590   11.7900
    16         C       -6.1820  -21.1100   10.8230
    17         H       -2.9830  -21.0730    9.6650
    18         H       -3.6410  -20.4920   11.2110
    19         H       -5.1330  -24.5880   12.9710
    20         H       -0.8460  -25.6480   10.4820
    21         H       -0.2460  -24.3100   11.4870
    22         H       -1.6810  -27.6700   11.4430
    23         H       -1.7770  -27.8920   13.2090
    24         H       -5.9940  -20.3920   11.6210
    25         H       -7.1750  -20.9440   10.4060
    26         C       -5.7040  -25.4690   11.1330
    27         C       -6.8940  -25.9180   11.6890
    28         C       -7.7460  -26.7190   10.9460
    29         C       -7.4080  -27.0700    9.6480
    30         H       -8.6730  -27.0700   11.3770
    31         C       -6.2170  -26.6200    9.0960
    32         C       -5.3720  -25.8160    9.8370
    33         H       -5.9540  -26.8930    8.0850
    34         H       -4.4450  -25.4660    9.4060
    35         O       -7.2220  -25.5700   12.9610
    36         H       -7.1250  -24.6270   13.1490
    37         O       -8.2430  -27.8560    8.9170
    38         H       -7.7860  -28.5010    8.3590
    39         C       -5.1740  -19.5250    9.1580
    40         H       -4.9020  -19.5470    8.1020
    41         H       -6.1820  -19.1230    9.2660
    42         H       -4.4710  -18.8950    9.7010
    43         C       -5.3660  -21.9660    8.6090
    44         H       -6.2610  -22.5460    8.8310
    45         H       -5.4970  -21.4440    7.6610
    46         H       -4.5080  -22.6340    8.5390
    47         C        0.6020  -26.6680   12.5710
    48         H        0.5430  -27.7280   12.3240
    49         H        1.2050  -26.1530   11.8210
    50         H        1.0630  -26.5480   13.5510
    51         C       -1.0480  -25.3390   13.9150
    52         H       -0.1520  -25.3950   14.5310
    53         H       -1.2860  -24.2950   13.7150
    54         H       -1.8810  -25.8080   14.4400

 General Reference for PM6:
 "Optimization of Parameters for Semiempirical Methods V: Modification of NDDO Approximations
 and Application to 70 Elements", J. J. P. Stewart, J. Mol. Mod., 13, 1173-1213 (2007)
 URL: http://www.springerlink.com/content/ar33482301010477/fulltext.pdf

           Empirical Formula: C23 H26 O5  =    54 atoms



      MOLECULAR POINT GROUP   :   C1  
 
   NUMBER AND TYPES OF BONDS IDENTIFIED
 
         SIGMA BONDS               57
         LONE PAIRS                10
         NORMAL PI BONDS            6
         AROMATIC RING PI BONDS     1
 

                  Ramachandran Angles
              Residue    phi    psi  omega

  
  SCF CRITERION =    0.1000E-02

 -------------------------------------------------------------------------------
 PM6 T=31359905 DUMP=4320 XYZ EPS=78.40 RSOLV=1.30 MULLIK LBFGS MOZYME PDBOUT +
 CHARGE=0 RELSCF=0.1 LET DDMIN=0.0 GNORM=0.15 1SCF
 SJ000002349-1_T001S001I001C09_001: Geometry optimization step



     1SCF WAS SPECIFIED, SO BFGS WAS NOT USED                 
     SCF FIELD WAS ACHIEVED                                   


                               PM6     CALCULATION
                                                       MOPAC2009 (Version: 9.015L)
                                                       Thu Sep  8 17:15:48 2011




          FINAL HEAT OF FORMATION =       -187.13479 KCAL =    -782.97197 KJ
          VAN DER WAALS AREA      =        357.48 SQUARE ANGSTROMS


          TOTAL ENERGY            =      -4642.13588 EV
          ELECTRONIC ENERGY       =     -41840.49621 EV
          CORE-CORE REPULSION     =      37198.36033 EV
          DIELECTRIC ENERGY       =         -1.47021 EV
          COSMO AREA              =        357.48 SQUARE ANGSTROMS
          COSMO VOLUME            =        454.09 CUBIC ANGSTROMS

          NO. OF FILLED LEVELS    =         74
          MOLECULAR WEIGHT        =        382.455

          MOLECULAR DIMENSIONS (Angstroms)

            Atom       Atom       Distance
            H    50    H    38    10.44394
            H    41    H    48     9.85703
            H    40    H    36     5.85836


          SCF CALCULATIONS        =          2
          COMPUTATION TIME        =          0.575 SECONDS




   ATOM           CHEMICAL             X               Y              Z
  NUMBER           SYMBOL         (ANGSTROMS)     (ANGSTROMS)    (ANGSTROMS)
 
     1       C(     1  C     )   -5.1290000  *  -20.946000  *    9.725000  *
     2       C(     2  C     )   -3.7800000  *  -21.203000  *   10.396000  *
     3       C(     3  C     )   -3.7270000  *  -22.608000  *   10.948000  *
     4       C(     4  C     )   -4.8630000  *  -23.186000  *   11.397000  *
     5       C(     5  C     )   -4.7770000  *  -24.597000  *   11.941000  *
     6       C(     6  C     )   -3.4010000  *  -25.232000  *   11.926000  *
     7       C(     7  C     )   -2.3710000  *  -24.505000  *   11.443000  *
     8       C(     8  C     )   -0.9870000  *  -25.107000  *   11.418000  *
     9       C(     9  C     )   -0.8050000  *  -26.069000  *   12.592000  *
    10       C(    10  C     )   -1.8500000  *  -27.170000  *   12.397000  *
    11       C(    11  C     )   -3.2170000  *  -26.537000  *   12.401000  *
    12       O(    12  O     )   -4.1690000  *  -27.164000  *   12.822000  *
    13       O(    13  O     )   -2.5550000  *  -23.259000  *   10.982000  *
    14       C(    14  C     )   -6.0900000  *  -22.511000  *   11.369000  *
    15       O(    15  O     )   -7.0890000  *  -23.059000  *   11.790000  *
    16       C(    16  C     )   -6.1820000  *  -21.110000  *   10.823000  *
    17       H(    17  C     )   -2.9830000  *  -21.073000  *    9.665000  *
    18       H(    18  C     )   -3.6410000  *  -20.492000  *   11.211000  *
    19       H(    19  C     )   -5.1330000  *  -24.588000  *   12.971000  *
    20       H(    20  C     )   -0.8460000  *  -25.648000  *   10.482000  *
    21       H(    21  C     )   -0.2460000  *  -24.310000  *   11.487000  *
    22       H(    22  C     )   -1.6810000  *  -27.670000  *   11.443000  *
    23       H(    23  C     )   -1.7770000  *  -27.892000  *   13.209000  *
    24       H(    24  C     )   -5.9940000  *  -20.392000  *   11.621000  *
    25       H(    25  C     )   -7.1750000  *  -20.944000  *   10.406000  *
    26       C(    26  C     )   -5.7040000  *  -25.469000  *   11.133000  *
    27       C(    27  C     )   -6.8940000  *  -25.918000  *   11.689000  *
    28       C(    28  C     )   -7.7460000  *  -26.719000  *   10.946000  *
    29       C(    29  C     )   -7.4080000  *  -27.070000  *    9.648000  *
    30       H(    30  C     )   -8.6730000  *  -27.070000  *   11.377000  *
    31       C(    31  C     )   -6.2170000  *  -26.620000  *    9.096000  *
    32       C(    32  C     )   -5.3720000  *  -25.816000  *    9.837000  *
    33       H(    33  C     )   -5.9540000  *  -26.893000  *    8.085000  *
    34       H(    34  C     )   -4.4450000  *  -25.466000  *    9.406000  *
    35       O(    35  O     )   -7.2220000  *  -25.570000  *   12.961000  *
    36       H(    36  O     )   -7.1250000  *  -24.627000  *   13.149000  *
    37       O(    37  O     )   -8.2430000  *  -27.856000  *    8.917000  *
    38       H(    38  O     )   -7.7860000  *  -28.501000  *    8.359000  *
    39       C(    39  C     )   -5.1740000  *  -19.525000  *    9.158000  *
    40       H(    40  C     )   -4.9020000  *  -19.547000  *    8.102000  *
    41       H(    41  C     )   -6.1820000  *  -19.123000  *    9.266000  *
    42       H(    42  C     )   -4.4710000  *  -18.895000  *    9.701000  *
    43       C(    43  C     )   -5.3660000  *  -21.966000  *    8.609000  *
    44       H(    44  C     )   -6.2610000  *  -22.546000  *    8.831000  *
    45       H(    45  C     )   -5.4970000  *  -21.444000  *    7.661000  *
    46       H(    46  C     )   -4.5080000  *  -22.634000  *    8.539000  *
    47       C(    47  C     )    0.6020000  *  -26.668000  *   12.571000  *
    48       H(    48  C     )    0.5430000  *  -27.728000  *   12.324000  *
    49       H(    49  C     )    1.2050000  *  -26.153000  *   11.821000  *
    50       H(    50  C     )    1.0630000  *  -26.548000  *   13.551000  *
    51       C(    51  C     )   -1.0480000  *  -25.339000  *   13.915000  *
    52       H(    52  C     )   -0.1520000  *  -25.395000  *   14.531000  *
    53       H(    53  C     )   -1.2860000  *  -24.295000  *   13.715000  *
    54       H(    54  C     )   -1.8810000  *  -25.808000  *   14.440000  *

           Empirical Formula: C23 H26 O5  =    54 atoms



              NET ATOMIC CHARGES AND DIPOLE CONTRIBUTIONS

  ATOM NO.   TYPE          CHARGE      No. of ELECS.   s-Pop       p-Pop       
    1          C           0.289361        3.7106     1.06312     2.64751
    2          C          -0.424289        4.4243     1.10815     3.31614
    3          C           0.467963        3.5320     1.10205     2.42999
    4          C          -0.511560        4.5116     1.10984     3.40172
    5          C           0.133867        3.8661     1.04815     2.81798
    6          C          -0.494483        4.4945     1.10984     3.38465
    7          C           0.453126        3.5469     1.10143     2.44544
    8          C          -0.422748        4.4227     1.10813     3.31462
    9          C           0.289382        3.7106     1.06295     2.64767
   10          C          -0.534048        4.5340     1.11930     3.41474
   11          C           0.670834        3.3292     1.07140     2.25777
   12          O          -0.631290        6.6313     1.84465     4.78664
   13          O          -0.351194        6.3512     1.77123     4.57996
   14          C           0.676555        3.3234     1.07173     2.25172
   15          O          -0.645575        6.6456     1.84227     4.80331
   16          C          -0.530119        4.5301     1.11851     3.41161
   17          H           0.200310        0.7997     0.79969
   18          H           0.208527        0.7915     0.79147
   19          H           0.138881        0.8611     0.86112
   20          H           0.207832        0.7922     0.79217
   21          H           0.199354        0.8006     0.80065
   22          H           0.207026        0.7930     0.79297
   23          H           0.201513        0.7985     0.79849
   24          H           0.208353        0.7916     0.79165
   25          H           0.202011        0.7980     0.79799
   26          C          -0.236932        4.2369     1.09707     3.13986
   27          C           0.429943        3.5701     1.05765     2.51241
   28          C          -0.473519        4.4735     1.10006     3.37346
   29          C           0.410380        3.5896     1.05842     2.53120
   30          H           0.204201        0.7958     0.79580
   31          C          -0.428041        4.4280     1.10655     3.32149
   32          C           0.033421        3.9666     1.09537     2.87121
   33          H           0.189697        0.8103     0.81030
   34          H           0.152303        0.8477     0.84770
   35          O          -0.556325        6.5563     1.77569     4.78063
   36          H           0.373577        0.6264     0.62642
   37          O          -0.542108        6.5421     1.77868     4.76343
   38          H           0.371510        0.6285     0.62849
   39          C          -0.546379        4.5464     1.09598     3.45040
   40          H           0.174003        0.8260     0.82600
   41          H           0.174038        0.8260     0.82596
   42          H           0.171214        0.8288     0.82879
   43          C          -0.557896        4.5579     1.09759     3.46030
   44          H           0.170467        0.8295     0.82953
   45          H           0.176773        0.8232     0.82323
   46          H           0.169863        0.8301     0.83014
   47          C          -0.550430        4.5504     1.09668     3.45375
   48          H           0.173301        0.8267     0.82670
   49          H           0.173245        0.8268     0.82676
   50          H           0.175151        0.8248     0.82485
   51          C          -0.559308        4.5593     1.09825     3.46106
   52          H           0.175696        0.8243     0.82430
   53          H           0.171158        0.8288     0.82884
   54          H           0.171410        0.8286     0.82859


          CARTESIAN COORDINATES 

    NO.       ATOM               X         Y         Z

     1         C                 -5.1290  -20.9460    9.7250
     2         C                 -3.7800  -21.2030   10.3960
     3         C                 -3.7270  -22.6080   10.9480
     4         C                 -4.8630  -23.1860   11.3970
     5         C                 -4.7770  -24.5970   11.9410
     6         C                 -3.4010  -25.2320   11.9260
     7         C                 -2.3710  -24.5050   11.4430
     8         C                 -0.9870  -25.1070   11.4180
     9         C                 -0.8050  -26.0690   12.5920
    10         C                 -1.8500  -27.1700   12.3970
    11         C                 -3.2170  -26.5370   12.4010
    12         O                 -4.1690  -27.1640   12.8220
    13         O                 -2.5550  -23.2590   10.9820
    14         C                 -6.0900  -22.5110   11.3690
    15         O                 -7.0890  -23.0590   11.7900
    16         C                 -6.1820  -21.1100   10.8230
    17         H                 -2.9830  -21.0730    9.6650
    18         H                 -3.6410  -20.4920   11.2110
    19         H                 -5.1330  -24.5880   12.9710
    20         H                 -0.8460  -25.6480   10.4820
    21         H                 -0.2460  -24.3100   11.4870
    22         H                 -1.6810  -27.6700   11.4430
    23         H                 -1.7770  -27.8920   13.2090
    24         H                 -5.9940  -20.3920   11.6210
    25         H                 -7.1750  -20.9440   10.4060
    26         C                 -5.7040  -25.4690   11.1330
    27         C                 -6.8940  -25.9180   11.6890
    28         C                 -7.7460  -26.7190   10.9460
    29         C                 -7.4080  -27.0700    9.6480
    30         H                 -8.6730  -27.0700   11.3770
    31         C                 -6.2170  -26.6200    9.0960
    32         C                 -5.3720  -25.8160    9.8370
    33         H                 -5.9540  -26.8930    8.0850
    34         H                 -4.4450  -25.4660    9.4060
    35         O                 -7.2220  -25.5700   12.9610
    36         H                 -7.1250  -24.6270   13.1490
    37         O                 -8.2430  -27.8560    8.9170
    38         H                 -7.7860  -28.5010    8.3590
    39         C                 -5.1740  -19.5250    9.1580
    40         H                 -4.9020  -19.5470    8.1020
    41         H                 -6.1820  -19.1230    9.2660
    42         H                 -4.4710  -18.8950    9.7010
    43         C                 -5.3660  -21.9660    8.6090
    44         H                 -6.2610  -22.5460    8.8310
    45         H                 -5.4970  -21.4440    7.6610
    46         H                 -4.5080  -22.6340    8.5390
    47         C                  0.6020  -26.6680   12.5710
    48         H                  0.5430  -27.7280   12.3240
    49         H                  1.2050  -26.1530   11.8210
    50         H                  1.0630  -26.5480   13.5510
    51         C                 -1.0480  -25.3390   13.9150
    52         H                 -0.1520  -25.3950   14.5310
    53         H                 -1.2860  -24.2950   13.7150
    54         H                 -1.8810  -25.8080   14.4400


          ATOMIC ORBITAL ELECTRON POPULATIONS

   1.06312   0.84692   0.91812   0.88248   1.10815   1.14445   1.00527   1.16642
   1.10205   0.77670   0.86667   0.78661   1.10984   1.05414   1.09224   1.25534
   1.04815   0.90193   0.86803   1.04802   1.10984   1.04952   1.09168   1.24345
   1.10143   0.93730   0.73563   0.77251   1.10813   1.02260   1.13609   1.15592
   1.06295   0.90143   0.86866   0.87758   1.11930   1.06613   1.13653   1.21209
   1.07140   0.82205   0.80745   0.62826   1.84465   1.54866   1.71128   1.52670
   1.77123   1.47069   1.38938   1.71989   1.07173   0.80527   0.81813   0.62832
   1.84227   1.52080   1.73870   1.54381   1.11851   1.16952   1.09787   1.14423
   0.79969   0.79147   0.86112   0.79217   0.80065   0.79297   0.79849   0.79165
   0.79799   1.09707   1.02592   1.09420   1.01974   1.05765   0.89197   0.87109
   0.74935   1.10006   1.14642   1.19829   1.02875   1.05842   0.84283   0.82946
   0.85892   0.79580   1.10655   1.05709   1.13886   1.12553   1.09537   1.01099
   0.90940   0.95083   0.81030   0.84770   1.77569   1.89588   1.46735   1.41740
   0.62642   1.77868   1.53485   1.57589   1.65269   0.62849   1.09598   1.19555
   1.07869   1.17616   0.82600   0.82596   0.82879   1.09759   1.18954   1.13884
   1.13192   0.82953   0.82323   0.83014   1.09668   1.07979   1.17578   1.19818
   0.82670   0.82676   0.82485   1.09825   1.19604   1.16453   1.10050   0.82430
   0.82884   0.82859

           MULLIKEN POPULATION ANALYSIS



        MULLIKEN POPULATIONS AND CHARGES

      NO.  ATOM   POPULATION      CHARGE
        1    C     3.681445      0.318555
        2    C     4.544810     -0.544810
        3    C     3.507203      0.492797
        4    C     4.563089     -0.563089
        5    C     3.862082      0.137918
        6    C     4.544711     -0.544711
        7    C     3.523170      0.476830
        8    C     4.542667     -0.542667
        9    C     3.681281      0.318719
       10    C     4.665758     -0.665758
       11    C     3.275330      0.724670
       12    O     6.656265     -0.656265
       13    O     6.400163     -0.400163
       14    C     3.269728      0.730272
       15    O     6.672599     -0.672599
       16    C     4.661498     -0.661498
       17    H     0.741904      0.258096
       18    H     0.734219      0.265781
       19    H     0.816107      0.183893
       20    H     0.734829      0.265171
       21    H     0.743450      0.256550
       22    H     0.736671      0.263329
       23    H     0.741012      0.258988
       24    H     0.734866      0.265134
       25    H     0.740627      0.259373
       26    C     4.260491     -0.260491
       27    C     3.541095      0.458905
       28    C     4.547672     -0.547672
       29    C     3.564928      0.435072
       30    H     0.732045      0.267955
       31    C     4.503051     -0.503051
       32    C     3.993956      0.006044
       33    H     0.750570      0.249430
       34    H     0.798358      0.201642
       35    O     6.608167     -0.608167
       36    H     0.590680      0.409320
       37    O     6.593885     -0.593885
       38    H     0.593798      0.406202
       39    C     4.693233     -0.693233
       40    H     0.777785      0.222215
       41    H     0.777517      0.222483
       42    H     0.780517      0.219483
       43    C     4.704025     -0.704025
       44    H     0.781843      0.218157
       45    H     0.774214      0.225786
       46    H     0.782669      0.217331
       47    C     4.697278     -0.697278
       48    H     0.778281      0.221719
       49    H     0.778752      0.221248
       50    H     0.776629      0.223371
       51    C     4.705609     -0.705609
       52    H     0.775674      0.224326
       53    H     0.780904      0.219096
       54    H     0.780888      0.219112



 TOTAL CPU TIME:             0.63 SECONDS

 == MOPAC DONE ==
 *******************************************************************************
 ** Site#:  958            For non-commercial use only         Version 9.015L **
 *******************************************************************************
 ** Cite this work as: MOPAC2009, James J. P. Stewart, Stewart Computational  **
 ** Chemistry, Version 9.015L web: HTTP://OpenMOPAC.net                       **
 *******************************************************************************
 **                                                                           **
 **                                MOPAC2009                                  **
 **                                                                           **
 *******************************************************************************

                            PM6 CALCULATION RESULTS


 *******************************************************************************
 *  CALCULATION DONE:                                Thu Sep  8 17:15:48 2011  *
 *  PM6      - The PM6 Hamiltonian to be used
 *  GEO-OK   - OVERRIDE INTERATOMIC DISTANCE CHECK
 *  MOZYME   - USE LOCALIZED M.O.s IN SOLVING THE SCF EQUATIONS
 *
 *
 *
 *                 CHARGE ON SYSTEM =     0
 *
 *
 *
 *  EPS= 78.400
 *  RSOLV=  1.300
 *  OLDGEO   - PREVIOUS GEOMETRY TO BE USED
 *  T=       - A TIME OF 172800.0 SECONDS REQUESTED
 *  DUMP=N   - RESTART FILE WRITTEN EVERY  4320.000 SECONDS
 *  RELSCF   - DEFAULT SCF CRITERION MULTIPLIED BY   0.100    
 *             (DEFAULT SCFCRT= 0.00010)
 *  THERMO   - THERMODYNAMIC QUANTITIES TO BE CALCULATED
 *******************************************************************************
 PM6 DUMP=4320 MOZYME RELSCF=0.1 THERMO EPS=78.40 RSOLV=1.30 +
 OLDGEO GEO-OK CHARGE=0
 SJ000002349-1_T001S001I001C09_001: Free energy calculation

   ATOM           CHEMICAL             X               Y              Z
  NUMBER           SYMBOL         (ANGSTROMS)     (ANGSTROMS)    (ANGSTROMS)
 
     1       C(     1  C     )   -5.1290000  *  -20.946000  *    9.725000  *
     2       C(     2  C     )   -3.7800000  *  -21.203000  *   10.396000  *
     3       C(     3  C     )   -3.7270000  *  -22.608000  *   10.948000  *
     4       C(     4  C     )   -4.8630000  *  -23.186000  *   11.397000  *
     5       C(     5  C     )   -4.7770000  *  -24.597000  *   11.941000  *
     6       C(     6  C     )   -3.4010000  *  -25.232000  *   11.926000  *
     7       C(     7  C     )   -2.3710000  *  -24.505000  *   11.443000  *
     8       C(     8  C     )   -0.9870000  *  -25.107000  *   11.418000  *
     9       C(     9  C     )   -0.8050000  *  -26.069000  *   12.592000  *
    10       C(    10  C     )   -1.8500000  *  -27.170000  *   12.397000  *
    11       C(    11  C     )   -3.2170000  *  -26.537000  *   12.401000  *
    12       O(    12  O     )   -4.1690000  *  -27.164000  *   12.822000  *
    13       O(    13  O     )   -2.5550000  *  -23.259000  *   10.982000  *
    14       C(    14  C     )   -6.0900000  *  -22.511000  *   11.369000  *
    15       O(    15  O     )   -7.0890000  *  -23.059000  *   11.790000  *
    16       C(    16  C     )   -6.1820000  *  -21.110000  *   10.823000  *
    17       H(    17  C     )   -2.9830000  *  -21.073000  *    9.665000  *
    18       H(    18  C     )   -3.6410000  *  -20.492000  *   11.211000  *
    19       H(    19  C     )   -5.1330000  *  -24.588000  *   12.971000  *
    20       H(    20  C     )   -0.8460000  *  -25.648000  *   10.482000  *
    21       H(    21  C     )   -0.2460000  *  -24.310000  *   11.487000  *
    22       H(    22  C     )   -1.6810000  *  -27.670000  *   11.443000  *
    23       H(    23  C     )   -1.7770000  *  -27.892000  *   13.209000  *
    24       H(    24  C     )   -5.9940000  *  -20.392000  *   11.621000  *
    25       H(    25  C     )   -7.1750000  *  -20.944000  *   10.406000  *
    26       C(    26  C     )   -5.7040000  *  -25.469000  *   11.133000  *
    27       C(    27  C     )   -6.8940000  *  -25.918000  *   11.689000  *
    28       C(    28  C     )   -7.7460000  *  -26.719000  *   10.946000  *
    29       C(    29  C     )   -7.4080000  *  -27.070000  *    9.648000  *
    30       H(    30  C     )   -8.6730000  *  -27.070000  *   11.377000  *
    31       C(    31  C     )   -6.2170000  *  -26.620000  *    9.096000  *
    32       C(    32  C     )   -5.3720000  *  -25.816000  *    9.837000  *
    33       H(    33  C     )   -5.9540000  *  -26.893000  *    8.085000  *
    34       H(    34  C     )   -4.4450000  *  -25.466000  *    9.406000  *
    35       O(    35  O     )   -7.2220000  *  -25.570000  *   12.961000  *
    36       H(    36  O     )   -7.1250000  *  -24.627000  *   13.149000  *
    37       O(    37  O     )   -8.2430000  *  -27.856000  *    8.917000  *
    38       H(    38  O     )   -7.7860000  *  -28.501000  *    8.359000  *
    39       C(    39  C     )   -5.1740000  *  -19.525000  *    9.158000  *
    40       H(    40  C     )   -4.9020000  *  -19.547000  *    8.102000  *
    41       H(    41  C     )   -6.1820000  *  -19.123000  *    9.266000  *
    42       H(    42  C     )   -4.4710000  *  -18.895000  *    9.701000  *
    43       C(    43  C     )   -5.3660000  *  -21.966000  *    8.609000  *
    44       H(    44  C     )   -6.2610000  *  -22.546000  *    8.831000  *
    45       H(    45  C     )   -5.4970000  *  -21.444000  *    7.661000  *
    46       H(    46  C     )   -4.5080000  *  -22.634000  *    8.539000  *
    47       C(    47  C     )    0.6020000  *  -26.668000  *   12.571000  *
    48       H(    48  C     )    0.5430000  *  -27.728000  *   12.324000  *
    49       H(    49  C     )    1.2050000  *  -26.153000  *   11.821000  *
    50       H(    50  C     )    1.0630000  *  -26.548000  *   13.551000  *
    51       C(    51  C     )   -1.0480000  *  -25.339000  *   13.915000  *
    52       H(    52  C     )   -0.1520000  *  -25.395000  *   14.531000  *
    53       H(    53  C     )   -1.2860000  *  -24.295000  *   13.715000  *
    54       H(    54  C     )   -1.8810000  *  -25.808000  *   14.440000  *
 


          CARTESIAN COORDINATES 

    NO.       ATOM         X         Y         Z

     1         C       -5.1290  -20.9460    9.7250
     2         C       -3.7800  -21.2030   10.3960
     3         C       -3.7270  -22.6080   10.9480
     4         C       -4.8630  -23.1860   11.3970
     5         C       -4.7770  -24.5970   11.9410
     6         C       -3.4010  -25.2320   11.9260
     7         C       -2.3710  -24.5050   11.4430
     8         C       -0.9870  -25.1070   11.4180
     9         C       -0.8050  -26.0690   12.5920
    10         C       -1.8500  -27.1700   12.3970
    11         C       -3.2170  -26.5370   12.4010
    12         O       -4.1690  -27.1640   12.8220
    13         O       -2.5550  -23.2590   10.9820
    14         C       -6.0900  -22.5110   11.3690
    15         O       -7.0890  -23.0590   11.7900
    16         C       -6.1820  -21.1100   10.8230
    17         H       -2.9830  -21.0730    9.6650
    18         H       -3.6410  -20.4920   11.2110
    19         H       -5.1330  -24.5880   12.9710
    20         H       -0.8460  -25.6480   10.4820
    21         H       -0.2460  -24.3100   11.4870
    22         H       -1.6810  -27.6700   11.4430
    23         H       -1.7770  -27.8920   13.2090
    24         H       -5.9940  -20.3920   11.6210
    25         H       -7.1750  -20.9440   10.4060
    26         C       -5.7040  -25.4690   11.1330
    27         C       -6.8940  -25.9180   11.6890
    28         C       -7.7460  -26.7190   10.9460
    29         C       -7.4080  -27.0700    9.6480
    30         H       -8.6730  -27.0700   11.3770
    31         C       -6.2170  -26.6200    9.0960
    32         C       -5.3720  -25.8160    9.8370
    33         H       -5.9540  -26.8930    8.0850
    34         H       -4.4450  -25.4660    9.4060
    35         O       -7.2220  -25.5700   12.9610
    36         H       -7.1250  -24.6270   13.1490
    37         O       -8.2430  -27.8560    8.9170
    38         H       -7.7860  -28.5010    8.3590
    39         C       -5.1740  -19.5250    9.1580
    40         H       -4.9020  -19.5470    8.1020
    41         H       -6.1820  -19.1230    9.2660
    42         H       -4.4710  -18.8950    9.7010
    43         C       -5.3660  -21.9660    8.6090
    44         H       -6.2610  -22.5460    8.8310
    45         H       -5.4970  -21.4440    7.6610
    46         H       -4.5080  -22.6340    8.5390
    47         C        0.6020  -26.6680   12.5710
    48         H        0.5430  -27.7280   12.3240
    49         H        1.2050  -26.1530   11.8210
    50         H        1.0630  -26.5480   13.5510
    51         C       -1.0480  -25.3390   13.9150
    52         H       -0.1520  -25.3950   14.5310
    53         H       -1.2860  -24.2950   13.7150
    54         H       -1.8810  -25.8080   14.4400

 General Reference for PM6:
 "Optimization of Parameters for Semiempirical Methods V: Modification of NDDO Approximations
 and Application to 70 Elements", J. J. P. Stewart, J. Mol. Mod., 13, 1173-1213 (2007)
 URL: http://www.springerlink.com/content/ar33482301010477/fulltext.pdf

           Empirical Formula: C23 H26 O5  =    54 atoms



      MOLECULAR POINT GROUP   :   C1  
 
   NUMBER AND TYPES OF BONDS IDENTIFIED
 
         SIGMA BONDS               57
         LONE PAIRS                10
         NORMAL PI BONDS            6
         AROMATIC RING PI BONDS     1
 
  SCF CRITERION =    0.1000E-02


          HEAT OF FORMATION =    -187.134891 KCALS/MOLE


          INTERNAL COORDINATE DERIVATIVES

   NUMBER  ATOM       BOND         ANGLE      DIHEDRAL

     1       C
     2       C     10.529975
     3       C      7.234801    -2.067305
     4       C    -31.914817   -19.413236   -18.620397
     5       C     37.160712     9.174637    23.333602
     6       C    -67.675847   -17.930879   -27.254734
     7       C      8.778460    -9.992713    -7.639766
     8       C     35.218581    68.196199     7.916777
     9       C    -16.898685   -41.607808    -5.573775
    10       C     23.236701    32.580469    10.611020
    11       C    -10.412470    -5.351727     1.233607
    12       O      7.705890     6.803590    10.021505
    13       O    -13.543034   -50.587860    -3.355777
    14       C      6.313982   -35.086669    12.734755
    15       O    -37.013999    61.940419   -34.652452
    16       C     37.234936    10.681311    25.447165
    17       H     27.353318   -24.407764    26.635456
    18       H     -4.125538   -11.604168    -7.505979
    19       H     -9.022079    12.603554    -9.134122
    20       H    -10.883095     9.533027     9.361644
    21       H     -6.492756    -4.207440    22.556074
    22       H      2.733104     2.962830   -16.648267
    23       H     -7.247524    14.275731    -6.407692
    24       H      1.379829    -9.402597   -11.935900
    25       H     -5.460078   -14.135849    -0.368986
    26       C      0.880318     5.782126    14.333594
    27       C     12.910083     1.955221     7.518858
    28       C    -15.679638    18.279629    -0.256620
    29       C      5.625735     4.908682    -4.897956
    30       H     20.524760   -24.614851    19.545758
    31       C    -12.411110     2.791960    -3.340878
    32       C      4.033223    -4.835432     4.313881
    33       H      1.931118     3.651250   -24.437923
    34       H     -2.836178     4.142278   -10.224002
    35       O      1.069747     0.153496    -8.053710
    36       H     -4.001540     5.831562    -5.227768
    37       O      8.293943   -30.777128    13.600143
    38       H     -2.164460    20.198964     4.569606
    39       C     18.445310    -9.885905    17.714434
    40       H     -3.213103    -1.723279   -15.623105
    41       H     -5.835202    -6.652653     2.348042
    42       H      2.167361     8.202813    -1.728624
    43       C      4.378497     7.078356    -0.129024
    44       H      2.023710     9.647324     1.847925
    45       H     -0.243155     2.114639     2.395556
    46       H      5.257162    -5.346420    -8.669912
    47       C      4.145736    -3.419916    -7.875087
    48       H      3.720057    -4.729236    -9.932970
    49       H      8.098833     1.900977    -1.696527
    50       H     -8.032330    -1.841447    -5.448201
    51       C     -8.715086    -0.223273    -4.706450
    52       H     -8.982968    -1.098714    -2.566645
    53       H      1.349059    -0.726408    -2.763597
    54       H     -3.946822     1.922699     8.924979


          GRADIENT NORM = 211.73868



 ** GRADIENT IS TOO LARGE TO ALLOW FORCE MATRIX TO BE CALCULATED, (LIMIT=10) **



 EITHER ADD 'LET' OR REDUCE GRADIENT
 USING 'TS' OR OTHER GEOMETRY OPTIMIZER



 TOTAL CPU TIME:             1.38 SECONDS

 == MOPAC DONE ==
