 *******************************************************************************
 ** Site#:  958            For non-commercial use only         Version 9.015L **
 *******************************************************************************
 ** Cite this work as: MOPAC2009, James J. P. Stewart, Stewart Computational  **
 ** Chemistry, Version 9.015L web: HTTP://OpenMOPAC.net                       **
 *******************************************************************************
 **                                                                           **
 **                                MOPAC2009                                  **
 **                                                                           **
 *******************************************************************************

                            PM6 CALCULATION RESULTS


 *******************************************************************************
 *  CALCULATION DONE:                                Thu Sep  8 11:51:43 2011  *
 *  PM6      - The PM6 Hamiltonian to be used
 *  PDBOUT   - PRINT GEOMETY IN PDB FORMAT
 *  MOZYME   - USE LOCALIZED M.O.s IN SOLVING THE SCF EQUATIONS
 *
 *
 *
 *                 CHARGE ON SYSTEM =     0
 *
 *
 *
 *  EPS= 78.400
 *  RSOLV=  1.300
 *  LET      - OVERRIDE SOME SAFETY CHECKS
 *  XYZ      - CARTESIAN COORDINATE SYSTEM TO BE USED
 *  LBFGS    - USE THE LBFGS GEOMETRY OPTIMIZER
 *  1SCF     - DO 1 SCF AND THEN STOP 
 *  T=       - A TIME OF  0.3E+08 SECONDS REQUESTED
 *  DUMP=N   - RESTART FILE WRITTEN EVERY  4320.000 SECONDS
 *  DDMIN=   - MINIMUM TRUST RADIUS  0.000 ANG/RAD
 *  GNORM=   - EXIT WHEN GRADIENT NORM DROPS BELOW .150    
 *  RELSCF   - DEFAULT SCF CRITERION MULTIPLIED BY   0.100    
 *             (DEFAULT SCFCRT= 0.00010)
 *  MULLIK   - THE MULLIKEN ANALYSIS TO BE PERFORMED
 *******************************************************************************
 PM6 T=31379349 DUMP=4320 XYZ EPS=78.40 RSOLV=1.30 MULLIK LBFGS MOZYME PDBOUT +
 CHARGE=0 RELSCF=0.1 LET DDMIN=0.0 GNORM=0.15 1SCF
 SJ000002349-1_T001S001I001C07_002: Geometry optimization step

   ATOM   CHEMICAL          X               Y              Z
  NUMBER   SYMBOL      (ANGSTROMS)     (ANGSTROMS)    (ANGSTROMS)
 
     1       C          0.6340000  *  -24.963000  *   13.176000  *
     2       C          0.6460000  *  -24.569000  *   11.699000  *
     3       C         -0.1270000  *  -25.578000  *   10.883000  *
     4       C         -1.1840000  *  -26.214000  *   11.426000  *
     5       C         -1.9590000  *  -27.217000  *   10.610000  *
     6       C         -1.6900000  *  -27.029000  *    9.138000  *
     7       C         -0.6030000  *  -26.343000  *    8.735000  *
     8       C         -0.3380000  *  -26.149000  *    7.260000  *
     9       C         -1.6580000  *  -26.067000  *    6.494000  *
    10       C         -2.3640000  *  -27.404000  *    6.724000  *
    11       C         -2.5850000  *  -27.580000  *    8.201000  *
    12       O         -3.5490000  *  -28.206000  *    8.592000  *
    13       O          0.2610000  *  -25.827000  *    9.622000  *
    14       C         -1.5810000  *  -25.954000  *   12.750000  *
    15       O         -2.5380000  *  -26.539000  *   13.213000  *
    16       C         -0.8360000  *  -24.962000  *   13.602000  *
    17       H          0.1900000  *  -23.586000  *   11.583000  *
    18       H          1.6760000  *  -24.531000  *   11.344000  *
    19       H         -1.6630000  *  -28.224000  *   10.903000  *
    20       H          0.2240000  *  -25.226000  *    7.114000  *
    21       H          0.2450000  *  -26.990000  *    6.885000  *
    22       H         -3.3240000  *  -27.407000  *    6.206000  *
    23       H         -1.7420000  *  -28.217000  *    6.347000  *
    24       H         -0.9140000  *  -25.248000  *   14.651000  *
    25       H         -1.2580000  *  -23.968000  *   13.462000  *
    26       C         -3.4320000  *  -27.036000  *   10.872000  *
    27       C         -4.1760000  *  -28.082000  *   11.399000  *
    28       C         -5.5320000  *  -27.915000  *   11.639000  *
    29       C         -6.1400000  *  -26.703000  *   11.353000  *
    30       H         -6.1130000  *  -28.729000  *   12.049000  *
    31       C         -5.3920000  *  -25.660000  *   10.826000  *
    32       C         -4.0400000  *  -25.827000  *   10.593000  *
    33       H         -5.8660000  *  -24.715000  *   10.602000  *
    34       H         -3.4600000  *  -25.014000  *   10.183000  *
    35       O         -3.5770000  *  -29.269000  *   11.678000  *
    36       H         -3.0790000  *  -29.643000  *   10.938000  *
    37       O         -7.4680000  *  -26.537000  *   11.588000  *
    38       H         -7.8820000  *  -25.855000  *   11.040000  *
    39       C          1.2320000  *  -26.360000  *   13.353000  *
    40       H          0.4280000  *  -27.089000  *   13.452000  *
    41       H          1.8410000  *  -26.609000  *   12.483000  *
    42       H          1.8540000  *  -26.379000  *   14.248000  *
    43       C          1.4230000  *  -23.943000  *   14.000000  *
    44       H          0.7430000  *  -23.180000  *   14.378000  *
    45       H          1.9060000  *  -24.447000  *   14.837000  *
    46       H          2.1800000  *  -23.475000  *   13.371000  *
    47       C         -2.5130000  *  -24.920000  *    7.040000  *
    48       H         -3.4570000  *  -25.318000  *    7.414000  *
    49       H         -1.9810000  *  -24.425000  *    7.853000  *
    50       H         -2.7090000  *  -24.202000  *    6.245000  *
    51       C         -1.3900000  *  -25.859000  *    5.003000  *
    52       H         -0.3150000  *  -25.861000  *    4.823000  *
    53       H         -1.8540000  *  -26.666000  *    4.435000  *
    54       H         -1.8110000  *  -24.904000  *    4.687000  *
 


          CARTESIAN COORDINATES 

    NO.       ATOM         X         Y         Z

     1         C        0.6340  -24.9630   13.1760
     2         C        0.6460  -24.5690   11.6990
     3         C       -0.1270  -25.5780   10.8830
     4         C       -1.1840  -26.2140   11.4260
     5         C       -1.9590  -27.2170   10.6100
     6         C       -1.6900  -27.0290    9.1380
     7         C       -0.6030  -26.3430    8.7350
     8         C       -0.3380  -26.1490    7.2600
     9         C       -1.6580  -26.0670    6.4940
    10         C       -2.3640  -27.4040    6.7240
    11         C       -2.5850  -27.5800    8.2010
    12         O       -3.5490  -28.2060    8.5920
    13         O        0.2610  -25.8270    9.6220
    14         C       -1.5810  -25.9540   12.7500
    15         O       -2.5380  -26.5390   13.2130
    16         C       -0.8360  -24.9620   13.6020
    17         H        0.1900  -23.5860   11.5830
    18         H        1.6760  -24.5310   11.3440
    19         H       -1.6630  -28.2240   10.9030
    20         H        0.2240  -25.2260    7.1140
    21         H        0.2450  -26.9900    6.8850
    22         H       -3.3240  -27.4070    6.2060
    23         H       -1.7420  -28.2170    6.3470
    24         H       -0.9140  -25.2480   14.6510
    25         H       -1.2580  -23.9680   13.4620
    26         C       -3.4320  -27.0360   10.8720
    27         C       -4.1760  -28.0820   11.3990
    28         C       -5.5320  -27.9150   11.6390
    29         C       -6.1400  -26.7030   11.3530
    30         H       -6.1130  -28.7290   12.0490
    31         C       -5.3920  -25.6600   10.8260
    32         C       -4.0400  -25.8270   10.5930
    33         H       -5.8660  -24.7150   10.6020
    34         H       -3.4600  -25.0140   10.1830
    35         O       -3.5770  -29.2690   11.6780
    36         H       -3.0790  -29.6430   10.9380
    37         O       -7.4680  -26.5370   11.5880
    38         H       -7.8820  -25.8550   11.0400
    39         C        1.2320  -26.3600   13.3530
    40         H        0.4280  -27.0890   13.4520
    41         H        1.8410  -26.6090   12.4830
    42         H        1.8540  -26.3790   14.2480
    43         C        1.4230  -23.9430   14.0000
    44         H        0.7430  -23.1800   14.3780
    45         H        1.9060  -24.4470   14.8370
    46         H        2.1800  -23.4750   13.3710
    47         C       -2.5130  -24.9200    7.0400
    48         H       -3.4570  -25.3180    7.4140
    49         H       -1.9810  -24.4250    7.8530
    50         H       -2.7090  -24.2020    6.2450
    51         C       -1.3900  -25.8590    5.0030
    52         H       -0.3150  -25.8610    4.8230
    53         H       -1.8540  -26.6660    4.4350
    54         H       -1.8110  -24.9040    4.6870

 General Reference for PM6:
 "Optimization of Parameters for Semiempirical Methods V: Modification of NDDO Approximations
 and Application to 70 Elements", J. J. P. Stewart, J. Mol. Mod., 13, 1173-1213 (2007)
 URL: http://www.springerlink.com/content/ar33482301010477/fulltext.pdf

           Empirical Formula: C23 H26 O5  =    54 atoms



      MOLECULAR POINT GROUP   :   C1  
 
   NUMBER AND TYPES OF BONDS IDENTIFIED
 
         SIGMA BONDS               57
         LONE PAIRS                10
         NORMAL PI BONDS            6
         AROMATIC RING PI BONDS     1
 

                  Ramachandran Angles
              Residue    phi    psi  omega

  
  SCF CRITERION =    0.1000E-02

 -------------------------------------------------------------------------------
 PM6 T=31379349 DUMP=4320 XYZ EPS=78.40 RSOLV=1.30 MULLIK LBFGS MOZYME PDBOUT +
 CHARGE=0 RELSCF=0.1 LET DDMIN=0.0 GNORM=0.15 1SCF
 SJ000002349-1_T001S001I001C07_002: Geometry optimization step



     1SCF WAS SPECIFIED, SO BFGS WAS NOT USED                 
     SCF FIELD WAS ACHIEVED                                   


                               PM6     CALCULATION
                                                       MOPAC2009 (Version: 9.015L)
                                                       Thu Sep  8 11:51:43 2011




          FINAL HEAT OF FORMATION =       -182.90471 KCAL =    -765.27329 KJ
          VAN DER WAALS AREA      =        356.77 SQUARE ANGSTROMS


          TOTAL ENERGY            =      -4642.53265 EV
          ELECTRONIC ENERGY       =     -41996.96044 EV
          CORE-CORE REPULSION     =      37354.42778 EV
          DIELECTRIC ENERGY       =         -1.44283 EV
          COSMO AREA              =        356.77 SQUARE ANGSTROMS
          COSMO VOLUME            =        458.98 CUBIC ANGSTROMS

          NO. OF FILLED LEVELS    =         74
          MOLECULAR WEIGHT        =        382.455

          MOLECULAR DIMENSIONS (Angstroms)

            Atom       Atom       Distance
            H    46    H    38    10.59914
            H    53    H    24     9.76251
            H    36    H    50     5.76050


          SCF CALCULATIONS        =          2
          COMPUTATION TIME        =          0.586 SECONDS




   ATOM           CHEMICAL             X               Y              Z
  NUMBER           SYMBOL         (ANGSTROMS)     (ANGSTROMS)    (ANGSTROMS)
 
     1       C(     1  C     )    0.6340000  *  -24.963000  *   13.176000  *
     2       C(     2  C     )    0.6460000  *  -24.569000  *   11.699000  *
     3       C(     3  C     )   -0.1270000  *  -25.578000  *   10.883000  *
     4       C(     4  C     )   -1.1840000  *  -26.214000  *   11.426000  *
     5       C(     5  C     )   -1.9590000  *  -27.217000  *   10.610000  *
     6       C(     6  C     )   -1.6900000  *  -27.029000  *    9.138000  *
     7       C(     7  C     )   -0.6030000  *  -26.343000  *    8.735000  *
     8       C(     8  C     )   -0.3380000  *  -26.149000  *    7.260000  *
     9       C(     9  C     )   -1.6580000  *  -26.067000  *    6.494000  *
    10       C(    10  C     )   -2.3640000  *  -27.404000  *    6.724000  *
    11       C(    11  C     )   -2.5850000  *  -27.580000  *    8.201000  *
    12       O(    12  O     )   -3.5490000  *  -28.206000  *    8.592000  *
    13       O(    13  O     )    0.2610000  *  -25.827000  *    9.622000  *
    14       C(    14  C     )   -1.5810000  *  -25.954000  *   12.750000  *
    15       O(    15  O     )   -2.5380000  *  -26.539000  *   13.213000  *
    16       C(    16  C     )   -0.8360000  *  -24.962000  *   13.602000  *
    17       H(    17  C     )    0.1900000  *  -23.586000  *   11.583000  *
    18       H(    18  C     )    1.6760000  *  -24.531000  *   11.344000  *
    19       H(    19  C     )   -1.6630000  *  -28.224000  *   10.903000  *
    20       H(    20  C     )    0.2240000  *  -25.226000  *    7.114000  *
    21       H(    21  C     )    0.2450000  *  -26.990000  *    6.885000  *
    22       H(    22  C     )   -3.3240000  *  -27.407000  *    6.206000  *
    23       H(    23  C     )   -1.7420000  *  -28.217000  *    6.347000  *
    24       H(    24  C     )   -0.9140000  *  -25.248000  *   14.651000  *
    25       H(    25  C     )   -1.2580000  *  -23.968000  *   13.462000  *
    26       C(    26  C     )   -3.4320000  *  -27.036000  *   10.872000  *
    27       C(    27  C     )   -4.1760000  *  -28.082000  *   11.399000  *
    28       C(    28  C     )   -5.5320000  *  -27.915000  *   11.639000  *
    29       C(    29  C     )   -6.1400000  *  -26.703000  *   11.353000  *
    30       H(    30  C     )   -6.1130000  *  -28.729000  *   12.049000  *
    31       C(    31  C     )   -5.3920000  *  -25.660000  *   10.826000  *
    32       C(    32  C     )   -4.0400000  *  -25.827000  *   10.593000  *
    33       H(    33  C     )   -5.8660000  *  -24.715000  *   10.602000  *
    34       H(    34  C     )   -3.4600000  *  -25.014000  *   10.183000  *
    35       O(    35  O     )   -3.5770000  *  -29.269000  *   11.678000  *
    36       H(    36  O     )   -3.0790000  *  -29.643000  *   10.938000  *
    37       O(    37  O     )   -7.4680000  *  -26.537000  *   11.588000  *
    38       H(    38  O     )   -7.8820000  *  -25.855000  *   11.040000  *
    39       C(    39  C     )    1.2320000  *  -26.360000  *   13.353000  *
    40       H(    40  C     )    0.4280000  *  -27.089000  *   13.452000  *
    41       H(    41  C     )    1.8410000  *  -26.609000  *   12.483000  *
    42       H(    42  C     )    1.8540000  *  -26.379000  *   14.248000  *
    43       C(    43  C     )    1.4230000  *  -23.943000  *   14.000000  *
    44       H(    44  C     )    0.7430000  *  -23.180000  *   14.378000  *
    45       H(    45  C     )    1.9060000  *  -24.447000  *   14.837000  *
    46       H(    46  C     )    2.1800000  *  -23.475000  *   13.371000  *
    47       C(    47  C     )   -2.5130000  *  -24.920000  *    7.040000  *
    48       H(    48  C     )   -3.4570000  *  -25.318000  *    7.414000  *
    49       H(    49  C     )   -1.9810000  *  -24.425000  *    7.853000  *
    50       H(    50  C     )   -2.7090000  *  -24.202000  *    6.245000  *
    51       C(    51  C     )   -1.3900000  *  -25.859000  *    5.003000  *
    52       H(    52  C     )   -0.3150000  *  -25.861000  *    4.823000  *
    53       H(    53  C     )   -1.8540000  *  -26.666000  *    4.435000  *
    54       H(    54  C     )   -1.8110000  *  -24.904000  *    4.687000  *

           Empirical Formula: C23 H26 O5  =    54 atoms



              NET ATOMIC CHARGES AND DIPOLE CONTRIBUTIONS

  ATOM NO.   TYPE          CHARGE      No. of ELECS.   s-Pop       p-Pop       
    1          C           0.288138        3.7119     1.06281     2.64905
    2          C          -0.421881        4.4219     1.10727     3.31461
    3          C           0.438160        3.5618     1.10033     2.46151
    4          C          -0.484962        4.4850     1.11027     3.37469
    5          C           0.129968        3.8700     1.04965     2.82038
    6          C          -0.492771        4.4928     1.11139     3.38138
    7          C           0.439022        3.5610     1.10014     2.46084
    8          C          -0.423714        4.4237     1.10808     3.31564
    9          C           0.289064        3.7109     1.06273     2.64821
   10          C          -0.534054        4.5341     1.11892     3.41513
   11          C           0.665913        3.3341     1.07343     2.26066
   12          O          -0.622529        6.6225     1.84473     4.77780
   13          O          -0.344846        6.3448     1.78197     4.56288
   14          C           0.662571        3.3374     1.07312     2.26431
   15          O          -0.617110        6.6171     1.84469     4.77242
   16          C          -0.534214        4.5342     1.11841     3.41580
   17          H           0.206566        0.7934     0.79343
   18          H           0.197483        0.8025     0.80252
   19          H           0.136949        0.8631     0.86305
   20          H           0.198779        0.8012     0.80122
   21          H           0.206552        0.7934     0.79345
   22          H           0.201274        0.7987     0.79873
   23          H           0.207529        0.7925     0.79247
   24          H           0.200719        0.7993     0.79928
   25          H           0.205216        0.7948     0.79478
   26          C          -0.189261        4.1893     1.09382     3.09544
   27          C           0.419839        3.5802     1.05765     2.52251
   28          C          -0.463544        4.4635     1.09841     3.36514
   29          C           0.401349        3.5987     1.05796     2.54070
   30          H           0.200487        0.7995     0.79951
   31          C          -0.429865        4.4299     1.10534     3.32453
   32          C           0.022734        3.9773     1.09404     2.88323
   33          H           0.186535        0.8135     0.81347
   34          H           0.151168        0.8488     0.84883
   35          O          -0.555476        6.5555     1.77492     4.78056
   36          H           0.369980        0.6300     0.63002
   37          O          -0.534902        6.5349     1.77983     4.75507
   38          H           0.368606        0.6314     0.63139
   39          C          -0.557434        4.5574     1.09755     3.45988
   40          H           0.167842        0.8322     0.83216
   41          H           0.172287        0.8277     0.82771
   42          H           0.175112        0.8249     0.82489
   43          C          -0.546804        4.5468     1.09576     3.45105
   44          H           0.171420        0.8286     0.82858
   45          H           0.174075        0.8259     0.82593
   46          H           0.171354        0.8286     0.82865
   47          C          -0.558924        4.5589     1.09861     3.46031
   48          H           0.169946        0.8301     0.83005
   49          H           0.169457        0.8305     0.83054
   50          H           0.176129        0.8239     0.82387
   51          C          -0.551198        4.5512     1.09672     3.45448
   52          H           0.172012        0.8280     0.82799
   53          H           0.174380        0.8256     0.82562
   54          H           0.174877        0.8251     0.82512


          CARTESIAN COORDINATES 

    NO.       ATOM               X         Y         Z

     1         C                  0.6340  -24.9630   13.1760
     2         C                  0.6460  -24.5690   11.6990
     3         C                 -0.1270  -25.5780   10.8830
     4         C                 -1.1840  -26.2140   11.4260
     5         C                 -1.9590  -27.2170   10.6100
     6         C                 -1.6900  -27.0290    9.1380
     7         C                 -0.6030  -26.3430    8.7350
     8         C                 -0.3380  -26.1490    7.2600
     9         C                 -1.6580  -26.0670    6.4940
    10         C                 -2.3640  -27.4040    6.7240
    11         C                 -2.5850  -27.5800    8.2010
    12         O                 -3.5490  -28.2060    8.5920
    13         O                  0.2610  -25.8270    9.6220
    14         C                 -1.5810  -25.9540   12.7500
    15         O                 -2.5380  -26.5390   13.2130
    16         C                 -0.8360  -24.9620   13.6020
    17         H                  0.1900  -23.5860   11.5830
    18         H                  1.6760  -24.5310   11.3440
    19         H                 -1.6630  -28.2240   10.9030
    20         H                  0.2240  -25.2260    7.1140
    21         H                  0.2450  -26.9900    6.8850
    22         H                 -3.3240  -27.4070    6.2060
    23         H                 -1.7420  -28.2170    6.3470
    24         H                 -0.9140  -25.2480   14.6510
    25         H                 -1.2580  -23.9680   13.4620
    26         C                 -3.4320  -27.0360   10.8720
    27         C                 -4.1760  -28.0820   11.3990
    28         C                 -5.5320  -27.9150   11.6390
    29         C                 -6.1400  -26.7030   11.3530
    30         H                 -6.1130  -28.7290   12.0490
    31         C                 -5.3920  -25.6600   10.8260
    32         C                 -4.0400  -25.8270   10.5930
    33         H                 -5.8660  -24.7150   10.6020
    34         H                 -3.4600  -25.0140   10.1830
    35         O                 -3.5770  -29.2690   11.6780
    36         H                 -3.0790  -29.6430   10.9380
    37         O                 -7.4680  -26.5370   11.5880
    38         H                 -7.8820  -25.8550   11.0400
    39         C                  1.2320  -26.3600   13.3530
    40         H                  0.4280  -27.0890   13.4520
    41         H                  1.8410  -26.6090   12.4830
    42         H                  1.8540  -26.3790   14.2480
    43         C                  1.4230  -23.9430   14.0000
    44         H                  0.7430  -23.1800   14.3780
    45         H                  1.9060  -24.4470   14.8370
    46         H                  2.1800  -23.4750   13.3710
    47         C                 -2.5130  -24.9200    7.0400
    48         H                 -3.4570  -25.3180    7.4140
    49         H                 -1.9810  -24.4250    7.8530
    50         H                 -2.7090  -24.2020    6.2450
    51         C                 -1.3900  -25.8590    5.0030
    52         H                 -0.3150  -25.8610    4.8230
    53         H                 -1.8540  -26.6660    4.4350
    54         H                 -1.8110  -24.9040    4.6870


          ATOMIC ORBITAL ELECTRON POPULATIONS

   1.06281   0.87899   0.91138   0.85868   1.10727   1.15955   1.09633   1.05873
   1.10033   0.87424   0.84403   0.74323   1.11027   1.11414   1.17565   1.08490
   1.04965   0.92578   1.02366   0.87094   1.11139   1.10525   1.20451   1.07162
   1.10014   0.81692   0.79017   0.85374   1.10808   1.13618   1.20890   0.97056
   1.06273   0.86201   0.88176   0.90443   1.11892   1.19418   1.13249   1.08847
   1.07343   0.74430   0.65743   0.85892   1.84473   1.44310   1.49109   1.84360
   1.78197   1.52260   1.72831   1.31197   1.07312   0.72918   0.71138   0.82374
   1.84469   1.41654   1.57073   1.78515   1.11841   1.09137   1.15913   1.16530
   0.79343   0.80252   0.86305   0.80122   0.79345   0.79873   0.79247   0.79928
   0.79478   1.09382   0.99981   1.00546   1.09017   1.05765   0.87751   0.78190
   0.86310   1.09841   1.04172   1.08882   1.23460   1.05796   0.74826   0.91568
   0.87676   0.79951   1.10534   1.04388   1.10272   1.17792   1.09404   0.96599
   1.00456   0.91268   0.81347   0.84883   1.77492   1.73898   1.47537   1.56621
   0.63002   1.77983   1.35188   1.69334   1.70985   0.63139   1.09755   1.17466
   1.08773   1.19749   0.83216   0.82771   0.82489   1.09576   1.15864   1.13746
   1.15495   0.82858   0.82593   0.82865   1.09861   1.15387   1.12442   1.18202
   0.83005   0.83054   0.82387   1.09672   1.19214   1.19528   1.06706   0.82799
   0.82562   0.82512

           MULLIKEN POPULATION ANALYSIS



        MULLIKEN POPULATIONS AND CHARGES

      NO.  ATOM   POPULATION      CHARGE
        1    C     3.682622      0.317378
        2    C     4.541164     -0.541164
        3    C     3.538373      0.461627
        4    C     4.534265     -0.534265
        5    C     3.867033      0.132967
        6    C     4.543028     -0.543028
        7    C     3.537465      0.462535
        8    C     4.543401     -0.543401
        9    C     3.681452      0.318548
       10    C     4.665547     -0.665547
       11    C     3.280935      0.719065
       12    O     6.647511     -0.647511
       13    O     6.392076     -0.392076
       14    C     3.284607      0.715393
       15    O     6.641759     -0.641759
       16    C     4.665538     -0.665538
       17    H     0.736343      0.263657
       18    H     0.745885      0.254115
       19    H     0.818557      0.181443
       20    H     0.744120      0.255880
       21    H     0.736257      0.263743
       22    H     0.741714      0.258286
       23    H     0.736124      0.263876
       24    H     0.742083      0.257917
       25    H     0.738806      0.261194
       26    C     4.208485     -0.208485
       27    C     3.552690      0.447310
       28    C     4.535435     -0.535435
       29    C     3.574749      0.425251
       30    H     0.736818      0.263182
       31    C     4.503912     -0.503912
       32    C     4.005251     -0.005251
       33    H     0.754936      0.245064
       34    H     0.799797      0.200203
       35    O     6.607320     -0.607320
       36    H     0.595551      0.404449
       37    O     6.586929     -0.586929
       38    H     0.596864      0.403136
       39    C     4.703389     -0.703389
       40    H     0.785082      0.214918
       41    H     0.779634      0.220366
       42    H     0.776295      0.223705
       43    C     4.693375     -0.693375
       44    H     0.780353      0.219647
       45    H     0.777744      0.222256
       46    H     0.780716      0.219284
       47    C     4.704557     -0.704557
       48    H     0.782746      0.217254
       49    H     0.783282      0.216718
       50    H     0.775153      0.224847
       51    C     4.698049     -0.698049
       52    H     0.780032      0.219968
       53    H     0.777112      0.222888
       54    H     0.777080      0.222920



 TOTAL CPU TIME:             0.62 SECONDS

 == MOPAC DONE ==
 *******************************************************************************
 ** Site#:  958            For non-commercial use only         Version 9.015L **
 *******************************************************************************
 ** Cite this work as: MOPAC2009, James J. P. Stewart, Stewart Computational  **
 ** Chemistry, Version 9.015L web: HTTP://OpenMOPAC.net                       **
 *******************************************************************************
 **                                                                           **
 **                                MOPAC2009                                  **
 **                                                                           **
 *******************************************************************************

                            PM6 CALCULATION RESULTS


 *******************************************************************************
 *  CALCULATION DONE:                                Thu Sep  8 11:51:43 2011  *
 *  PM6      - The PM6 Hamiltonian to be used
 *  GEO-OK   - OVERRIDE INTERATOMIC DISTANCE CHECK
 *  MOZYME   - USE LOCALIZED M.O.s IN SOLVING THE SCF EQUATIONS
 *
 *
 *
 *                 CHARGE ON SYSTEM =     0
 *
 *
 *
 *  EPS= 78.400
 *  RSOLV=  1.300
 *  OLDGEO   - PREVIOUS GEOMETRY TO BE USED
 *  T=       - A TIME OF 172800.0 SECONDS REQUESTED
 *  DUMP=N   - RESTART FILE WRITTEN EVERY  4320.000 SECONDS
 *  RELSCF   - DEFAULT SCF CRITERION MULTIPLIED BY   0.100    
 *             (DEFAULT SCFCRT= 0.00010)
 *  THERMO   - THERMODYNAMIC QUANTITIES TO BE CALCULATED
 *******************************************************************************
 PM6 DUMP=4320 MOZYME RELSCF=0.1 THERMO EPS=78.40 RSOLV=1.30 +
 OLDGEO GEO-OK CHARGE=0
 SJ000002349-1_T001S001I001C07_002: Free energy calculation

   ATOM           CHEMICAL             X               Y              Z
  NUMBER           SYMBOL         (ANGSTROMS)     (ANGSTROMS)    (ANGSTROMS)
 
     1       C(     1  C     )    0.6340000  *  -24.963000  *   13.176000  *
     2       C(     2  C     )    0.6460000  *  -24.569000  *   11.699000  *
     3       C(     3  C     )   -0.1270000  *  -25.578000  *   10.883000  *
     4       C(     4  C     )   -1.1840000  *  -26.214000  *   11.426000  *
     5       C(     5  C     )   -1.9590000  *  -27.217000  *   10.610000  *
     6       C(     6  C     )   -1.6900000  *  -27.029000  *    9.138000  *
     7       C(     7  C     )   -0.6030000  *  -26.343000  *    8.735000  *
     8       C(     8  C     )   -0.3380000  *  -26.149000  *    7.260000  *
     9       C(     9  C     )   -1.6580000  *  -26.067000  *    6.494000  *
    10       C(    10  C     )   -2.3640000  *  -27.404000  *    6.724000  *
    11       C(    11  C     )   -2.5850000  *  -27.580000  *    8.201000  *
    12       O(    12  O     )   -3.5490000  *  -28.206000  *    8.592000  *
    13       O(    13  O     )    0.2610000  *  -25.827000  *    9.622000  *
    14       C(    14  C     )   -1.5810000  *  -25.954000  *   12.750000  *
    15       O(    15  O     )   -2.5380000  *  -26.539000  *   13.213000  *
    16       C(    16  C     )   -0.8360000  *  -24.962000  *   13.602000  *
    17       H(    17  C     )    0.1900000  *  -23.586000  *   11.583000  *
    18       H(    18  C     )    1.6760000  *  -24.531000  *   11.344000  *
    19       H(    19  C     )   -1.6630000  *  -28.224000  *   10.903000  *
    20       H(    20  C     )    0.2240000  *  -25.226000  *    7.114000  *
    21       H(    21  C     )    0.2450000  *  -26.990000  *    6.885000  *
    22       H(    22  C     )   -3.3240000  *  -27.407000  *    6.206000  *
    23       H(    23  C     )   -1.7420000  *  -28.217000  *    6.347000  *
    24       H(    24  C     )   -0.9140000  *  -25.248000  *   14.651000  *
    25       H(    25  C     )   -1.2580000  *  -23.968000  *   13.462000  *
    26       C(    26  C     )   -3.4320000  *  -27.036000  *   10.872000  *
    27       C(    27  C     )   -4.1760000  *  -28.082000  *   11.399000  *
    28       C(    28  C     )   -5.5320000  *  -27.915000  *   11.639000  *
    29       C(    29  C     )   -6.1400000  *  -26.703000  *   11.353000  *
    30       H(    30  C     )   -6.1130000  *  -28.729000  *   12.049000  *
    31       C(    31  C     )   -5.3920000  *  -25.660000  *   10.826000  *
    32       C(    32  C     )   -4.0400000  *  -25.827000  *   10.593000  *
    33       H(    33  C     )   -5.8660000  *  -24.715000  *   10.602000  *
    34       H(    34  C     )   -3.4600000  *  -25.014000  *   10.183000  *
    35       O(    35  O     )   -3.5770000  *  -29.269000  *   11.678000  *
    36       H(    36  O     )   -3.0790000  *  -29.643000  *   10.938000  *
    37       O(    37  O     )   -7.4680000  *  -26.537000  *   11.588000  *
    38       H(    38  O     )   -7.8820000  *  -25.855000  *   11.040000  *
    39       C(    39  C     )    1.2320000  *  -26.360000  *   13.353000  *
    40       H(    40  C     )    0.4280000  *  -27.089000  *   13.452000  *
    41       H(    41  C     )    1.8410000  *  -26.609000  *   12.483000  *
    42       H(    42  C     )    1.8540000  *  -26.379000  *   14.248000  *
    43       C(    43  C     )    1.4230000  *  -23.943000  *   14.000000  *
    44       H(    44  C     )    0.7430000  *  -23.180000  *   14.378000  *
    45       H(    45  C     )    1.9060000  *  -24.447000  *   14.837000  *
    46       H(    46  C     )    2.1800000  *  -23.475000  *   13.371000  *
    47       C(    47  C     )   -2.5130000  *  -24.920000  *    7.040000  *
    48       H(    48  C     )   -3.4570000  *  -25.318000  *    7.414000  *
    49       H(    49  C     )   -1.9810000  *  -24.425000  *    7.853000  *
    50       H(    50  C     )   -2.7090000  *  -24.202000  *    6.245000  *
    51       C(    51  C     )   -1.3900000  *  -25.859000  *    5.003000  *
    52       H(    52  C     )   -0.3150000  *  -25.861000  *    4.823000  *
    53       H(    53  C     )   -1.8540000  *  -26.666000  *    4.435000  *
    54       H(    54  C     )   -1.8110000  *  -24.904000  *    4.687000  *
 


          CARTESIAN COORDINATES 

    NO.       ATOM         X         Y         Z

     1         C        0.6340  -24.9630   13.1760
     2         C        0.6460  -24.5690   11.6990
     3         C       -0.1270  -25.5780   10.8830
     4         C       -1.1840  -26.2140   11.4260
     5         C       -1.9590  -27.2170   10.6100
     6         C       -1.6900  -27.0290    9.1380
     7         C       -0.6030  -26.3430    8.7350
     8         C       -0.3380  -26.1490    7.2600
     9         C       -1.6580  -26.0670    6.4940
    10         C       -2.3640  -27.4040    6.7240
    11         C       -2.5850  -27.5800    8.2010
    12         O       -3.5490  -28.2060    8.5920
    13         O        0.2610  -25.8270    9.6220
    14         C       -1.5810  -25.9540   12.7500
    15         O       -2.5380  -26.5390   13.2130
    16         C       -0.8360  -24.9620   13.6020
    17         H        0.1900  -23.5860   11.5830
    18         H        1.6760  -24.5310   11.3440
    19         H       -1.6630  -28.2240   10.9030
    20         H        0.2240  -25.2260    7.1140
    21         H        0.2450  -26.9900    6.8850
    22         H       -3.3240  -27.4070    6.2060
    23         H       -1.7420  -28.2170    6.3470
    24         H       -0.9140  -25.2480   14.6510
    25         H       -1.2580  -23.9680   13.4620
    26         C       -3.4320  -27.0360   10.8720
    27         C       -4.1760  -28.0820   11.3990
    28         C       -5.5320  -27.9150   11.6390
    29         C       -6.1400  -26.7030   11.3530
    30         H       -6.1130  -28.7290   12.0490
    31         C       -5.3920  -25.6600   10.8260
    32         C       -4.0400  -25.8270   10.5930
    33         H       -5.8660  -24.7150   10.6020
    34         H       -3.4600  -25.0140   10.1830
    35         O       -3.5770  -29.2690   11.6780
    36         H       -3.0790  -29.6430   10.9380
    37         O       -7.4680  -26.5370   11.5880
    38         H       -7.8820  -25.8550   11.0400
    39         C        1.2320  -26.3600   13.3530
    40         H        0.4280  -27.0890   13.4520
    41         H        1.8410  -26.6090   12.4830
    42         H        1.8540  -26.3790   14.2480
    43         C        1.4230  -23.9430   14.0000
    44         H        0.7430  -23.1800   14.3780
    45         H        1.9060  -24.4470   14.8370
    46         H        2.1800  -23.4750   13.3710
    47         C       -2.5130  -24.9200    7.0400
    48         H       -3.4570  -25.3180    7.4140
    49         H       -1.9810  -24.4250    7.8530
    50         H       -2.7090  -24.2020    6.2450
    51         C       -1.3900  -25.8590    5.0030
    52         H       -0.3150  -25.8610    4.8230
    53         H       -1.8540  -26.6660    4.4350
    54         H       -1.8110  -24.9040    4.6870

 General Reference for PM6:
 "Optimization of Parameters for Semiempirical Methods V: Modification of NDDO Approximations
 and Application to 70 Elements", J. J. P. Stewart, J. Mol. Mod., 13, 1173-1213 (2007)
 URL: http://www.springerlink.com/content/ar33482301010477/fulltext.pdf

           Empirical Formula: C23 H26 O5  =    54 atoms



      MOLECULAR POINT GROUP   :   C1  
 
   NUMBER AND TYPES OF BONDS IDENTIFIED
 
         SIGMA BONDS               57
         LONE PAIRS                10
         NORMAL PI BONDS            6
         AROMATIC RING PI BONDS     1
 
  SCF CRITERION =    0.1000E-02


          HEAT OF FORMATION =    -182.905879 KCALS/MOLE


          INTERNAL COORDINATE DERIVATIVES

   NUMBER  ATOM       BOND         ANGLE      DIHEDRAL

     1       C
     2       C     10.183239
     3       C      7.451144     1.952530
     4       C    -28.046274   -20.648141    18.695349
     5       C     41.598081    18.314309   -21.768611
     6       C    -49.009552   -12.854339    24.888194
     7       C     -4.964250     3.266798   -13.761725
     8       C     32.718074    39.629870    16.784185
     9       C    -33.031334   -38.230384    -3.082547
    10       C     30.448533    25.798756     2.886070
    11       C    -10.643557    -1.913625    -5.340607
    12       O      9.232503     6.288961    -5.785291
    13       O    -20.695611   -43.011161    -7.967056
    14       C      4.857858   -37.911225   -11.708353
    15       O    -33.365451    56.017528    37.374654
    16       C     40.800052     5.897798   -28.958013
    17       H     31.546578   -16.895450   -18.596220
    18       H     -3.213456    -9.028025     8.580276
    19       H    -10.549580     9.323080    -9.455304
    20       H     -9.159921    11.665226     8.592523
    21       H      9.841942    -9.134930    16.922811
    22       H     -6.647417    13.793369     6.865304
    23       H     -2.067071    -0.189157    17.195813
    24       H     -6.739284   -12.186324    -3.357538
    25       H     -3.376379   -10.952831     9.591119
    26       C     12.467720     2.143488    -6.841353
    27       C      0.790427     5.716432   -14.509630
    28       C     -7.807503    15.075033    17.875900
    29       C     -7.178310    -1.064512   -10.387318
    30       H     24.181914   -29.459381    -3.821964
    31       C     -7.517187     8.297453     4.437165
    32       C      3.821761    -6.207596    -0.544930
    33       H    -11.868258    13.553431   -18.415666
    34       H     -7.747845     8.059655    -6.580453
    35       O     -3.493798     2.930177    -5.664812
    36       H     -5.010944     7.747695     0.680406
    37       O     26.773033   -18.352632    -0.287595
    38       H    -10.742020     0.922976    10.551691
    39       C     19.999306   -19.926723    -0.213315
    40       H    -10.264840     6.473666   -10.435372
    41       H     -1.387363     2.358929    -1.251446
    42       H      4.764791    -5.590379    10.110759
    43       C      3.189410    -3.090716     8.527971
    44       H      4.642066    -3.636801     6.822368
    45       H     -6.321061    -6.042340    -2.425284
    46       H      2.509949     9.061733    -1.732263
    47       C      4.799664     7.006688     0.289834
    48       H      2.251938     8.674341     1.899985
    49       H      0.992496    -1.231059     2.494338
    50       H      0.419239     3.723120   -10.564990
    51       C      0.501728     4.954726   -10.372466
    52       H     -0.826268     3.944586    -8.974205
    53       H      6.975327    -0.640020     3.282621
    54       H     -9.898252     0.398086     3.190039


          GRADIENT NORM = 196.50272



 ** GRADIENT IS TOO LARGE TO ALLOW FORCE MATRIX TO BE CALCULATED, (LIMIT=10) **



 EITHER ADD 'LET' OR REDUCE GRADIENT
 USING 'TS' OR OTHER GEOMETRY OPTIMIZER



 TOTAL CPU TIME:             1.42 SECONDS

 == MOPAC DONE ==
