 *******************************************************************************
 ** Site#:  958            For non-commercial use only         Version 9.015L **
 *******************************************************************************
 ** Cite this work as: MOPAC2009, James J. P. Stewart, Stewart Computational  **
 ** Chemistry, Version 9.015L web: HTTP://OpenMOPAC.net                       **
 *******************************************************************************
 **                                                                           **
 **                                MOPAC2009                                  **
 **                                                                           **
 *******************************************************************************

                            PM6 CALCULATION RESULTS


 *******************************************************************************
 *  CALCULATION DONE:                                Wed Sep  7 17:55:38 2011  *
 *  PM6      - The PM6 Hamiltonian to be used
 *  PDBOUT   - PRINT GEOMETY IN PDB FORMAT
 *  MOZYME   - USE LOCALIZED M.O.s IN SOLVING THE SCF EQUATIONS
 *
 *
 *
 *                 CHARGE ON SYSTEM =     0
 *
 *
 *
 *  EPS= 78.400
 *  RSOLV=  1.300
 *  LET      - OVERRIDE SOME SAFETY CHECKS
 *  XYZ      - CARTESIAN COORDINATE SYSTEM TO BE USED
 *  LBFGS    - USE THE LBFGS GEOMETRY OPTIMIZER
 *  1SCF     - DO 1 SCF AND THEN STOP 
 *  T=       - A TIME OF  0.3E+08 SECONDS REQUESTED
 *  DUMP=N   - RESTART FILE WRITTEN EVERY  4320.000 SECONDS
 *  DDMIN=   - MINIMUM TRUST RADIUS  0.000 ANG/RAD
 *  GNORM=   - EXIT WHEN GRADIENT NORM DROPS BELOW .150    
 *  RELSCF   - DEFAULT SCF CRITERION MULTIPLIED BY   0.100    
 *             (DEFAULT SCFCRT= 0.00010)
 *  MULLIK   - THE MULLIKEN ANALYSIS TO BE PERFORMED
 *******************************************************************************
 PM6 T=31443914 DUMP=4320 XYZ EPS=78.40 RSOLV=1.30 MULLIK LBFGS MOZYME PDBOUT +
 CHARGE=0 RELSCF=0.1 LET DDMIN=0.0 GNORM=0.15 1SCF
 SJ000002349-1_T001S001I001C02_001: Geometry optimization step

   ATOM   CHEMICAL          X               Y              Z
  NUMBER   SYMBOL      (ANGSTROMS)     (ANGSTROMS)    (ANGSTROMS)
 
     1       C         -4.4720000  *  -20.456000  *    9.648000  *
     2       C         -3.1570000  *  -21.216000  *    9.833000  *
     3       C         -3.4320000  *  -22.571000  *   10.440000  *
     4       C         -4.4680000  *  -22.746000  *   11.281000  *
     5       C         -4.7260000  *  -24.101000  *   11.890000  *
     6       C         -3.4850000  *  -24.956000  *   11.816000  *
     7       C         -2.5090000  *  -24.653000  *   10.940000  *
     8       C         -1.2630000  *  -25.501000  *   10.859000  *
     9       C         -0.9490000  *  -26.094000  *   12.234000  *
    10       C         -2.1510000  *  -26.940000  *   12.665000  *
    11       C         -3.3740000  *  -26.064000  *   12.678000  *
    12       O         -4.2810000  *  -26.316000  *   13.445000  *
    13       O         -2.6230000  *  -23.596000  *   10.118000  *
    14       C         -5.3280000  *  -21.681000  *   11.608000  *
    15       O         -6.2500000  *  -21.874000  *   12.376000  *
    16       C         -5.1270000  *  -20.310000  *   11.025000  *
    17       H         -2.6730000  *  -21.343000  *    8.865000  *
    18       H         -2.5000000  *  -20.650000  *   10.493000  *
    19       H         -5.0140000  *  -23.977000  *   12.934000  *
    20       H         -1.4200000  *  -26.308000  *   10.144000  *
    21       H         -0.4250000  *  -24.885000  *   10.531000  *
    22       H         -2.2950000  *  -27.758000  *   11.959000  *
    23       H         -1.9770000  *  -27.342000  *   13.663000  *
    24       H         -4.4800000  *  -19.725000  *   11.678000  *
    25       H         -6.0900000  *  -19.811000  *   10.920000  *
    26       C         -5.8430000  *  -24.779000  *   11.141000  *
    27       C         -6.8480000  *  -25.435000  *   11.839000  *
    28       C         -7.8760000  *  -26.059000  *   11.149000  *
    29       C         -7.8960000  *  -26.027000  *    9.763000  *
    30       H         -8.6580000  *  -26.569000  *   11.689000  *
    31       C         -6.8890000  *  -25.371000  *    9.070000  *
    32       C         -5.8690000  *  -24.745000  *    9.760000  *
    33       H         -6.9040000  *  -25.346000  *    7.990000  *
    34       H         -5.0860000  *  -24.235000  *    9.218000  *
    35       O         -6.8250000  *  -25.464000  *   13.197000  *
    36       H         -5.9410000  *  -25.366000  *   13.578000  *
    37       O         -8.9030000  *  -26.639000  *    9.084000  *
    38       H         -9.7870000  *  -26.375000  *    9.371000  *
    39       C         -4.1910000  *  -19.072000  *    9.059000  *
    40       H         -4.9850000  *  -18.385000  *    9.352000  *
    41       H         -3.2360000  *  -18.705000  *    9.433000  *
    42       H         -4.1550000  *  -19.141000  *    7.972000  *
    43       C         -5.3950000  *  -21.239000  *    8.713000  *
    44       H         -6.3160000  *  -21.491000  *    9.239000  *
    45       H         -5.6300000  *  -20.630000  *    7.840000  *
    46       H         -4.8980000  *  -22.154000  *    8.394000  *
    47       C          0.2980000  *  -26.974000  *   12.146000  *
    48       H          0.0110000  *  -28.022000  *   12.233000  *
    49       H          0.7910000  *  -26.811000  *   11.187000  *
    50       H          0.9830000  *  -26.716000  *   12.953000  *
    51       C         -0.7180000  *  -24.967000  *   13.243000  *
    52       H          0.2660000  *  -25.083000  *   13.698000  *
    53       H         -0.7710000  *  -24.006000  *   12.732000  *
    54       H         -1.4840000  *  -25.010000  *   14.017000  *
 


          CARTESIAN COORDINATES 

    NO.       ATOM         X         Y         Z

     1         C       -4.4720  -20.4560    9.6480
     2         C       -3.1570  -21.2160    9.8330
     3         C       -3.4320  -22.5710   10.4400
     4         C       -4.4680  -22.7460   11.2810
     5         C       -4.7260  -24.1010   11.8900
     6         C       -3.4850  -24.9560   11.8160
     7         C       -2.5090  -24.6530   10.9400
     8         C       -1.2630  -25.5010   10.8590
     9         C       -0.9490  -26.0940   12.2340
    10         C       -2.1510  -26.9400   12.6650
    11         C       -3.3740  -26.0640   12.6780
    12         O       -4.2810  -26.3160   13.4450
    13         O       -2.6230  -23.5960   10.1180
    14         C       -5.3280  -21.6810   11.6080
    15         O       -6.2500  -21.8740   12.3760
    16         C       -5.1270  -20.3100   11.0250
    17         H       -2.6730  -21.3430    8.8650
    18         H       -2.5000  -20.6500   10.4930
    19         H       -5.0140  -23.9770   12.9340
    20         H       -1.4200  -26.3080   10.1440
    21         H       -0.4250  -24.8850   10.5310
    22         H       -2.2950  -27.7580   11.9590
    23         H       -1.9770  -27.3420   13.6630
    24         H       -4.4800  -19.7250   11.6780
    25         H       -6.0900  -19.8110   10.9200
    26         C       -5.8430  -24.7790   11.1410
    27         C       -6.8480  -25.4350   11.8390
    28         C       -7.8760  -26.0590   11.1490
    29         C       -7.8960  -26.0270    9.7630
    30         H       -8.6580  -26.5690   11.6890
    31         C       -6.8890  -25.3710    9.0700
    32         C       -5.8690  -24.7450    9.7600
    33         H       -6.9040  -25.3460    7.9900
    34         H       -5.0860  -24.2350    9.2180
    35         O       -6.8250  -25.4640   13.1970
    36         H       -5.9410  -25.3660   13.5780
    37         O       -8.9030  -26.6390    9.0840
    38         H       -9.7870  -26.3750    9.3710
    39         C       -4.1910  -19.0720    9.0590
    40         H       -4.9850  -18.3850    9.3520
    41         H       -3.2360  -18.7050    9.4330
    42         H       -4.1550  -19.1410    7.9720
    43         C       -5.3950  -21.2390    8.7130
    44         H       -6.3160  -21.4910    9.2390
    45         H       -5.6300  -20.6300    7.8400
    46         H       -4.8980  -22.1540    8.3940
    47         C        0.2980  -26.9740   12.1460
    48         H        0.0110  -28.0220   12.2330
    49         H        0.7910  -26.8110   11.1870
    50         H        0.9830  -26.7160   12.9530
    51         C       -0.7180  -24.9670   13.2430
    52         H        0.2660  -25.0830   13.6980
    53         H       -0.7710  -24.0060   12.7320
    54         H       -1.4840  -25.0100   14.0170

 General Reference for PM6:
 "Optimization of Parameters for Semiempirical Methods V: Modification of NDDO Approximations
 and Application to 70 Elements", J. J. P. Stewart, J. Mol. Mod., 13, 1173-1213 (2007)
 URL: http://www.springerlink.com/content/ar33482301010477/fulltext.pdf

           Empirical Formula: C23 H26 O5  =    54 atoms



      MOLECULAR POINT GROUP   :   C1  
 
   NUMBER AND TYPES OF BONDS IDENTIFIED
 
         SIGMA BONDS               57
         LONE PAIRS                10
         NORMAL PI BONDS            6
         AROMATIC RING PI BONDS     1
 

                  Ramachandran Angles
              Residue    phi    psi  omega

  
  SCF CRITERION =    0.1000E-02

 -------------------------------------------------------------------------------
 PM6 T=31443914 DUMP=4320 XYZ EPS=78.40 RSOLV=1.30 MULLIK LBFGS MOZYME PDBOUT +
 CHARGE=0 RELSCF=0.1 LET DDMIN=0.0 GNORM=0.15 1SCF
 SJ000002349-1_T001S001I001C02_001: Geometry optimization step



     1SCF WAS SPECIFIED, SO BFGS WAS NOT USED                 
     SCF FIELD WAS ACHIEVED                                   


                               PM6     CALCULATION
                                                       MOPAC2009 (Version: 9.015L)
                                                       Wed Sep  7 17:55:39 2011




          FINAL HEAT OF FORMATION =       -193.68689 KCAL =    -810.38594 KJ
          VAN DER WAALS AREA      =        361.74 SQUARE ANGSTROMS


          TOTAL ENERGY            =      -4641.83584 EV
          ELECTRONIC ENERGY       =     -41819.02970 EV
          CORE-CORE REPULSION     =      37177.19386 EV
          DIELECTRIC ENERGY       =         -1.38184 EV
          COSMO AREA              =        361.74 SQUARE ANGSTROMS
          COSMO VOLUME            =        455.31 CUBIC ANGSTROMS

          NO. OF FILLED LEVELS    =         74
          MOLECULAR WEIGHT        =        382.455

          MOLECULAR DIMENSIONS (Angstroms)

            Atom       Atom       Distance
            H    48    H    40    11.23085
            H    38    H    52    10.07193
            O    35    H    42     5.43477


          SCF CALCULATIONS        =          2
          COMPUTATION TIME        =          0.564 SECONDS




   ATOM           CHEMICAL             X               Y              Z
  NUMBER           SYMBOL         (ANGSTROMS)     (ANGSTROMS)    (ANGSTROMS)
 
     1       C(     1  C     )   -4.4720000  *  -20.456000  *    9.648000  *
     2       C(     2  C     )   -3.1570000  *  -21.216000  *    9.833000  *
     3       C(     3  C     )   -3.4320000  *  -22.571000  *   10.440000  *
     4       C(     4  C     )   -4.4680000  *  -22.746000  *   11.281000  *
     5       C(     5  C     )   -4.7260000  *  -24.101000  *   11.890000  *
     6       C(     6  C     )   -3.4850000  *  -24.956000  *   11.816000  *
     7       C(     7  C     )   -2.5090000  *  -24.653000  *   10.940000  *
     8       C(     8  C     )   -1.2630000  *  -25.501000  *   10.859000  *
     9       C(     9  C     )   -0.9490000  *  -26.094000  *   12.234000  *
    10       C(    10  C     )   -2.1510000  *  -26.940000  *   12.665000  *
    11       C(    11  C     )   -3.3740000  *  -26.064000  *   12.678000  *
    12       O(    12  O     )   -4.2810000  *  -26.316000  *   13.445000  *
    13       O(    13  O     )   -2.6230000  *  -23.596000  *   10.118000  *
    14       C(    14  C     )   -5.3280000  *  -21.681000  *   11.608000  *
    15       O(    15  O     )   -6.2500000  *  -21.874000  *   12.376000  *
    16       C(    16  C     )   -5.1270000  *  -20.310000  *   11.025000  *
    17       H(    17  C     )   -2.6730000  *  -21.343000  *    8.865000  *
    18       H(    18  C     )   -2.5000000  *  -20.650000  *   10.493000  *
    19       H(    19  C     )   -5.0140000  *  -23.977000  *   12.934000  *
    20       H(    20  C     )   -1.4200000  *  -26.308000  *   10.144000  *
    21       H(    21  C     )   -0.4250000  *  -24.885000  *   10.531000  *
    22       H(    22  C     )   -2.2950000  *  -27.758000  *   11.959000  *
    23       H(    23  C     )   -1.9770000  *  -27.342000  *   13.663000  *
    24       H(    24  C     )   -4.4800000  *  -19.725000  *   11.678000  *
    25       H(    25  C     )   -6.0900000  *  -19.811000  *   10.920000  *
    26       C(    26  C     )   -5.8430000  *  -24.779000  *   11.141000  *
    27       C(    27  C     )   -6.8480000  *  -25.435000  *   11.839000  *
    28       C(    28  C     )   -7.8760000  *  -26.059000  *   11.149000  *
    29       C(    29  C     )   -7.8960000  *  -26.027000  *    9.763000  *
    30       H(    30  C     )   -8.6580000  *  -26.569000  *   11.689000  *
    31       C(    31  C     )   -6.8890000  *  -25.371000  *    9.070000  *
    32       C(    32  C     )   -5.8690000  *  -24.745000  *    9.760000  *
    33       H(    33  C     )   -6.9040000  *  -25.346000  *    7.990000  *
    34       H(    34  C     )   -5.0860000  *  -24.235000  *    9.218000  *
    35       O(    35  O     )   -6.8250000  *  -25.464000  *   13.197000  *
    36       H(    36  O     )   -5.9410000  *  -25.366000  *   13.578000  *
    37       O(    37  O     )   -8.9030000  *  -26.639000  *    9.084000  *
    38       H(    38  O     )   -9.7870000  *  -26.375000  *    9.371000  *
    39       C(    39  C     )   -4.1910000  *  -19.072000  *    9.059000  *
    40       H(    40  C     )   -4.9850000  *  -18.385000  *    9.352000  *
    41       H(    41  C     )   -3.2360000  *  -18.705000  *    9.433000  *
    42       H(    42  C     )   -4.1550000  *  -19.141000  *    7.972000  *
    43       C(    43  C     )   -5.3950000  *  -21.239000  *    8.713000  *
    44       H(    44  C     )   -6.3160000  *  -21.491000  *    9.239000  *
    45       H(    45  C     )   -5.6300000  *  -20.630000  *    7.840000  *
    46       H(    46  C     )   -4.8980000  *  -22.154000  *    8.394000  *
    47       C(    47  C     )    0.2980000  *  -26.974000  *   12.146000  *
    48       H(    48  C     )    0.0110000  *  -28.022000  *   12.233000  *
    49       H(    49  C     )    0.7910000  *  -26.811000  *   11.187000  *
    50       H(    50  C     )    0.9830000  *  -26.716000  *   12.953000  *
    51       C(    51  C     )   -0.7180000  *  -24.967000  *   13.243000  *
    52       H(    52  C     )    0.2660000  *  -25.083000  *   13.698000  *
    53       H(    53  C     )   -0.7710000  *  -24.006000  *   12.732000  *
    54       H(    54  C     )   -1.4840000  *  -25.010000  *   14.017000  *

           Empirical Formula: C23 H26 O5  =    54 atoms



              NET ATOMIC CHARGES AND DIPOLE CONTRIBUTIONS

  ATOM NO.   TYPE          CHARGE      No. of ELECS.   s-Pop       p-Pop       
    1          C           0.286415        3.7136     1.06323     2.65036
    2          C          -0.421058        4.4211     1.10780     3.31326
    3          C           0.441099        3.5589     1.10230     2.45660
    4          C          -0.488204        4.4882     1.10965     3.37856
    5          C           0.142188        3.8578     1.04781     2.81000
    6          C          -0.505441        4.5054     1.11002     3.39542
    7          C           0.459822        3.5402     1.10136     2.43882
    8          C          -0.425874        4.4259     1.10865     3.31722
    9          C           0.286479        3.7135     1.06341     2.65011
   10          C          -0.524748        4.5247     1.11850     3.40625
   11          C           0.671126        3.3289     1.07616     2.25272
   12          O          -0.644703        6.6447     1.84061     4.80409
   13          O          -0.343485        6.3435     1.78474     4.55875
   14          C           0.670104        3.3299     1.07446     2.25544
   15          O          -0.637263        6.6373     1.84452     4.79274
   16          C          -0.530202        4.5302     1.11821     3.41199
   17          H           0.200623        0.7994     0.79938
   18          H           0.207886        0.7921     0.79211
   19          H           0.141293        0.8587     0.85871
   20          H           0.208912        0.7911     0.79109
   21          H           0.201574        0.7984     0.79843
   22          H           0.210335        0.7897     0.78967
   23          H           0.205367        0.7946     0.79463
   24          H           0.209350        0.7907     0.79065
   25          H           0.203629        0.7964     0.79637
   26          C          -0.280553        4.2806     1.09677     3.18379
   27          C           0.421980        3.5780     1.06023     2.51779
   28          C          -0.498339        4.4983     1.10592     3.39242
   29          C           0.421656        3.5783     1.05866     2.51968
   30          H           0.208455        0.7915     0.79154
   31          C          -0.398894        4.3989     1.10218     3.29671
   32          C           0.039492        3.9605     1.09573     2.86478
   33          H           0.192587        0.8074     0.80741
   34          H           0.152522        0.8475     0.84748
   35          O          -0.540337        6.5403     1.78059     4.75974
   36          H           0.371333        0.6287     0.62867
   37          O          -0.548764        6.5488     1.77624     4.77253
   38          H           0.374043        0.6260     0.62596
   39          C          -0.545848        4.5458     1.09556     3.45029
   40          H           0.173578        0.8264     0.82642
   41          H           0.171078        0.8289     0.82892
   42          H           0.173008        0.8270     0.82699
   43          C          -0.559082        4.5591     1.09758     3.46150
   44          H           0.170602        0.8294     0.82940
   45          H           0.177854        0.8221     0.82215
   46          H           0.167561        0.8324     0.83244
   47          C          -0.550170        4.5502     1.09658     3.45359
   48          H           0.173319        0.8267     0.82668
   49          H           0.173488        0.8265     0.82651
   50          H           0.175620        0.8244     0.82438
   51          C          -0.559989        4.5600     1.09862     3.46137
   52          H           0.177365        0.8226     0.82263
   53          H           0.170835        0.8292     0.82916
   54          H           0.170377        0.8296     0.82962


          CARTESIAN COORDINATES 

    NO.       ATOM               X         Y         Z

     1         C                 -4.4720  -20.4560    9.6480
     2         C                 -3.1570  -21.2160    9.8330
     3         C                 -3.4320  -22.5710   10.4400
     4         C                 -4.4680  -22.7460   11.2810
     5         C                 -4.7260  -24.1010   11.8900
     6         C                 -3.4850  -24.9560   11.8160
     7         C                 -2.5090  -24.6530   10.9400
     8         C                 -1.2630  -25.5010   10.8590
     9         C                 -0.9490  -26.0940   12.2340
    10         C                 -2.1510  -26.9400   12.6650
    11         C                 -3.3740  -26.0640   12.6780
    12         O                 -4.2810  -26.3160   13.4450
    13         O                 -2.6230  -23.5960   10.1180
    14         C                 -5.3280  -21.6810   11.6080
    15         O                 -6.2500  -21.8740   12.3760
    16         C                 -5.1270  -20.3100   11.0250
    17         H                 -2.6730  -21.3430    8.8650
    18         H                 -2.5000  -20.6500   10.4930
    19         H                 -5.0140  -23.9770   12.9340
    20         H                 -1.4200  -26.3080   10.1440
    21         H                 -0.4250  -24.8850   10.5310
    22         H                 -2.2950  -27.7580   11.9590
    23         H                 -1.9770  -27.3420   13.6630
    24         H                 -4.4800  -19.7250   11.6780
    25         H                 -6.0900  -19.8110   10.9200
    26         C                 -5.8430  -24.7790   11.1410
    27         C                 -6.8480  -25.4350   11.8390
    28         C                 -7.8760  -26.0590   11.1490
    29         C                 -7.8960  -26.0270    9.7630
    30         H                 -8.6580  -26.5690   11.6890
    31         C                 -6.8890  -25.3710    9.0700
    32         C                 -5.8690  -24.7450    9.7600
    33         H                 -6.9040  -25.3460    7.9900
    34         H                 -5.0860  -24.2350    9.2180
    35         O                 -6.8250  -25.4640   13.1970
    36         H                 -5.9410  -25.3660   13.5780
    37         O                 -8.9030  -26.6390    9.0840
    38         H                 -9.7870  -26.3750    9.3710
    39         C                 -4.1910  -19.0720    9.0590
    40         H                 -4.9850  -18.3850    9.3520
    41         H                 -3.2360  -18.7050    9.4330
    42         H                 -4.1550  -19.1410    7.9720
    43         C                 -5.3950  -21.2390    8.7130
    44         H                 -6.3160  -21.4910    9.2390
    45         H                 -5.6300  -20.6300    7.8400
    46         H                 -4.8980  -22.1540    8.3940
    47         C                  0.2980  -26.9740   12.1460
    48         H                  0.0110  -28.0220   12.2330
    49         H                  0.7910  -26.8110   11.1870
    50         H                  0.9830  -26.7160   12.9530
    51         C                 -0.7180  -24.9670   13.2430
    52         H                  0.2660  -25.0830   13.6980
    53         H                 -0.7710  -24.0060   12.7320
    54         H                 -1.4840  -25.0100   14.0170


          ATOMIC ORBITAL ELECTRON POPULATIONS

   1.06323   0.86365   0.90573   0.88098   1.10780   1.13589   0.99705   1.18033
   1.10230   0.80787   0.81168   0.83705   1.10965   1.11460   1.08449   1.17947
   1.04781   0.89384   0.86890   1.04726   1.11002   1.09013   1.14257   1.16271
   1.10136   0.90168   0.75682   0.78032   1.10865   1.05775   1.12351   1.13597
   1.06341   0.89304   0.89402   0.86305   1.11850   1.06256   1.13252   1.21117
   1.07616   0.78540   0.76742   0.69989   1.84061   1.53022   1.75852   1.51535
   1.78474   1.65429   1.35577   1.54869   1.07446   0.73098   0.84754   0.67692
   1.84452   1.45649   1.87024   1.46600   1.11821   1.19755   1.10104   1.11340
   0.79938   0.79211   0.85871   0.79109   0.79843   0.78967   0.79463   0.79065
   0.79637   1.09677   1.05268   1.11958   1.01153   1.06023   0.90912   0.86374
   0.74493   1.10592   1.15141   1.19576   1.04525   1.05866   0.82188   0.82837
   0.86943   0.79154   1.10218   1.06337   1.11299   1.12035   1.09573   0.97928
   0.91877   0.96674   0.80741   0.84748   1.78059   1.53153   1.89756   1.33066
   0.62867   1.77624   1.32116   1.73097   1.72040   0.62596   1.09556   1.19044
   1.08549   1.17437   0.82642   0.82892   0.82699   1.09758   1.14776   1.16135
   1.15239   0.82940   0.82215   0.83244   1.09658   1.10354   1.15204   1.19802
   0.82668   0.82651   0.82438   1.09862   1.19762   1.12464   1.13911   0.82263
   0.82916   0.82962

           MULLIKEN POPULATION ANALYSIS



        MULLIKEN POPULATIONS AND CHARGES

      NO.  ATOM   POPULATION      CHARGE
        1    C     3.684699      0.315301
        2    C     4.540812     -0.540812
        3    C     3.535961      0.464039
        4    C     4.538659     -0.538659
        5    C     3.852241      0.147759
        6    C     4.556624     -0.556624
        7    C     3.515128      0.484872
        8    C     4.546624     -0.546624
        9    C     3.684738      0.315262
       10    C     4.655946     -0.655946
       11    C     3.277132      0.722868
       12    O     6.672954     -0.672954
       13    O     6.390240     -0.390240
       14    C     3.277089      0.722911
       15    O     6.662575     -0.662575
       16    C     4.661958     -0.661958
       17    H     0.741827      0.258173
       18    H     0.734880      0.265120
       19    H     0.815079      0.184921
       20    H     0.733234      0.266766
       21    H     0.740983      0.259017
       22    H     0.732649      0.267351
       23    H     0.736605      0.263395
       24    H     0.733608      0.266392
       25    H     0.738906      0.261094
       26    C     4.308053     -0.308053
       27    C     3.550319      0.449681
       28    C     4.577058     -0.577058
       29    C     3.552663      0.447337
       30    H     0.726351      0.273649
       31    C     4.469636     -0.469636
       32    C     3.986752      0.013248
       33    H     0.746693      0.253307
       34    H     0.798704      0.201296
       35    O     6.591019     -0.591019
       36    H     0.592102      0.407898
       37    O     6.600257     -0.600257
       38    H     0.591024      0.408976
       39    C     4.692853     -0.692853
       40    H     0.777913      0.222087
       41    H     0.780528      0.219472
       42    H     0.778706      0.221294
       43    C     4.705021     -0.705021
       44    H     0.781743      0.218257
       45    H     0.772726      0.227274
       46    H     0.785818      0.214182
       47    C     4.697027     -0.697027
       48    H     0.778229      0.221771
       49    H     0.778291      0.221709
       50    H     0.776046      0.223954
       51    C     4.706082     -0.706082
       52    H     0.773842      0.226158
       53    H     0.781383      0.218617
       54    H     0.782009      0.217991



 TOTAL CPU TIME:             0.60 SECONDS

 == MOPAC DONE ==
 *******************************************************************************
 ** Site#:  958            For non-commercial use only         Version 9.015L **
 *******************************************************************************
 ** Cite this work as: MOPAC2009, James J. P. Stewart, Stewart Computational  **
 ** Chemistry, Version 9.015L web: HTTP://OpenMOPAC.net                       **
 *******************************************************************************
 **                                                                           **
 **                                MOPAC2009                                  **
 **                                                                           **
 *******************************************************************************

                            PM6 CALCULATION RESULTS


 *******************************************************************************
 *  CALCULATION DONE:                                Wed Sep  7 17:55:39 2011  *
 *  PM6      - The PM6 Hamiltonian to be used
 *  GEO-OK   - OVERRIDE INTERATOMIC DISTANCE CHECK
 *  MOZYME   - USE LOCALIZED M.O.s IN SOLVING THE SCF EQUATIONS
 *
 *
 *
 *                 CHARGE ON SYSTEM =     0
 *
 *
 *
 *  EPS= 78.400
 *  RSOLV=  1.300
 *  OLDGEO   - PREVIOUS GEOMETRY TO BE USED
 *  T=       - A TIME OF 172800.0 SECONDS REQUESTED
 *  DUMP=N   - RESTART FILE WRITTEN EVERY  4320.000 SECONDS
 *  RELSCF   - DEFAULT SCF CRITERION MULTIPLIED BY   0.100    
 *             (DEFAULT SCFCRT= 0.00010)
 *  THERMO   - THERMODYNAMIC QUANTITIES TO BE CALCULATED
 *******************************************************************************
 PM6 DUMP=4320 MOZYME RELSCF=0.1 THERMO EPS=78.40 RSOLV=1.30 +
 OLDGEO GEO-OK CHARGE=0
 SJ000002349-1_T001S001I001C02_001: Free energy calculation

   ATOM           CHEMICAL             X               Y              Z
  NUMBER           SYMBOL         (ANGSTROMS)     (ANGSTROMS)    (ANGSTROMS)
 
     1       C(     1  C     )   -4.4720000  *  -20.456000  *    9.648000  *
     2       C(     2  C     )   -3.1570000  *  -21.216000  *    9.833000  *
     3       C(     3  C     )   -3.4320000  *  -22.571000  *   10.440000  *
     4       C(     4  C     )   -4.4680000  *  -22.746000  *   11.281000  *
     5       C(     5  C     )   -4.7260000  *  -24.101000  *   11.890000  *
     6       C(     6  C     )   -3.4850000  *  -24.956000  *   11.816000  *
     7       C(     7  C     )   -2.5090000  *  -24.653000  *   10.940000  *
     8       C(     8  C     )   -1.2630000  *  -25.501000  *   10.859000  *
     9       C(     9  C     )   -0.9490000  *  -26.094000  *   12.234000  *
    10       C(    10  C     )   -2.1510000  *  -26.940000  *   12.665000  *
    11       C(    11  C     )   -3.3740000  *  -26.064000  *   12.678000  *
    12       O(    12  O     )   -4.2810000  *  -26.316000  *   13.445000  *
    13       O(    13  O     )   -2.6230000  *  -23.596000  *   10.118000  *
    14       C(    14  C     )   -5.3280000  *  -21.681000  *   11.608000  *
    15       O(    15  O     )   -6.2500000  *  -21.874000  *   12.376000  *
    16       C(    16  C     )   -5.1270000  *  -20.310000  *   11.025000  *
    17       H(    17  C     )   -2.6730000  *  -21.343000  *    8.865000  *
    18       H(    18  C     )   -2.5000000  *  -20.650000  *   10.493000  *
    19       H(    19  C     )   -5.0140000  *  -23.977000  *   12.934000  *
    20       H(    20  C     )   -1.4200000  *  -26.308000  *   10.144000  *
    21       H(    21  C     )   -0.4250000  *  -24.885000  *   10.531000  *
    22       H(    22  C     )   -2.2950000  *  -27.758000  *   11.959000  *
    23       H(    23  C     )   -1.9770000  *  -27.342000  *   13.663000  *
    24       H(    24  C     )   -4.4800000  *  -19.725000  *   11.678000  *
    25       H(    25  C     )   -6.0900000  *  -19.811000  *   10.920000  *
    26       C(    26  C     )   -5.8430000  *  -24.779000  *   11.141000  *
    27       C(    27  C     )   -6.8480000  *  -25.435000  *   11.839000  *
    28       C(    28  C     )   -7.8760000  *  -26.059000  *   11.149000  *
    29       C(    29  C     )   -7.8960000  *  -26.027000  *    9.763000  *
    30       H(    30  C     )   -8.6580000  *  -26.569000  *   11.689000  *
    31       C(    31  C     )   -6.8890000  *  -25.371000  *    9.070000  *
    32       C(    32  C     )   -5.8690000  *  -24.745000  *    9.760000  *
    33       H(    33  C     )   -6.9040000  *  -25.346000  *    7.990000  *
    34       H(    34  C     )   -5.0860000  *  -24.235000  *    9.218000  *
    35       O(    35  O     )   -6.8250000  *  -25.464000  *   13.197000  *
    36       H(    36  O     )   -5.9410000  *  -25.366000  *   13.578000  *
    37       O(    37  O     )   -8.9030000  *  -26.639000  *    9.084000  *
    38       H(    38  O     )   -9.7870000  *  -26.375000  *    9.371000  *
    39       C(    39  C     )   -4.1910000  *  -19.072000  *    9.059000  *
    40       H(    40  C     )   -4.9850000  *  -18.385000  *    9.352000  *
    41       H(    41  C     )   -3.2360000  *  -18.705000  *    9.433000  *
    42       H(    42  C     )   -4.1550000  *  -19.141000  *    7.972000  *
    43       C(    43  C     )   -5.3950000  *  -21.239000  *    8.713000  *
    44       H(    44  C     )   -6.3160000  *  -21.491000  *    9.239000  *
    45       H(    45  C     )   -5.6300000  *  -20.630000  *    7.840000  *
    46       H(    46  C     )   -4.8980000  *  -22.154000  *    8.394000  *
    47       C(    47  C     )    0.2980000  *  -26.974000  *   12.146000  *
    48       H(    48  C     )    0.0110000  *  -28.022000  *   12.233000  *
    49       H(    49  C     )    0.7910000  *  -26.811000  *   11.187000  *
    50       H(    50  C     )    0.9830000  *  -26.716000  *   12.953000  *
    51       C(    51  C     )   -0.7180000  *  -24.967000  *   13.243000  *
    52       H(    52  C     )    0.2660000  *  -25.083000  *   13.698000  *
    53       H(    53  C     )   -0.7710000  *  -24.006000  *   12.732000  *
    54       H(    54  C     )   -1.4840000  *  -25.010000  *   14.017000  *
 


          CARTESIAN COORDINATES 

    NO.       ATOM         X         Y         Z

     1         C       -4.4720  -20.4560    9.6480
     2         C       -3.1570  -21.2160    9.8330
     3         C       -3.4320  -22.5710   10.4400
     4         C       -4.4680  -22.7460   11.2810
     5         C       -4.7260  -24.1010   11.8900
     6         C       -3.4850  -24.9560   11.8160
     7         C       -2.5090  -24.6530   10.9400
     8         C       -1.2630  -25.5010   10.8590
     9         C       -0.9490  -26.0940   12.2340
    10         C       -2.1510  -26.9400   12.6650
    11         C       -3.3740  -26.0640   12.6780
    12         O       -4.2810  -26.3160   13.4450
    13         O       -2.6230  -23.5960   10.1180
    14         C       -5.3280  -21.6810   11.6080
    15         O       -6.2500  -21.8740   12.3760
    16         C       -5.1270  -20.3100   11.0250
    17         H       -2.6730  -21.3430    8.8650
    18         H       -2.5000  -20.6500   10.4930
    19         H       -5.0140  -23.9770   12.9340
    20         H       -1.4200  -26.3080   10.1440
    21         H       -0.4250  -24.8850   10.5310
    22         H       -2.2950  -27.7580   11.9590
    23         H       -1.9770  -27.3420   13.6630
    24         H       -4.4800  -19.7250   11.6780
    25         H       -6.0900  -19.8110   10.9200
    26         C       -5.8430  -24.7790   11.1410
    27         C       -6.8480  -25.4350   11.8390
    28         C       -7.8760  -26.0590   11.1490
    29         C       -7.8960  -26.0270    9.7630
    30         H       -8.6580  -26.5690   11.6890
    31         C       -6.8890  -25.3710    9.0700
    32         C       -5.8690  -24.7450    9.7600
    33         H       -6.9040  -25.3460    7.9900
    34         H       -5.0860  -24.2350    9.2180
    35         O       -6.8250  -25.4640   13.1970
    36         H       -5.9410  -25.3660   13.5780
    37         O       -8.9030  -26.6390    9.0840
    38         H       -9.7870  -26.3750    9.3710
    39         C       -4.1910  -19.0720    9.0590
    40         H       -4.9850  -18.3850    9.3520
    41         H       -3.2360  -18.7050    9.4330
    42         H       -4.1550  -19.1410    7.9720
    43         C       -5.3950  -21.2390    8.7130
    44         H       -6.3160  -21.4910    9.2390
    45         H       -5.6300  -20.6300    7.8400
    46         H       -4.8980  -22.1540    8.3940
    47         C        0.2980  -26.9740   12.1460
    48         H        0.0110  -28.0220   12.2330
    49         H        0.7910  -26.8110   11.1870
    50         H        0.9830  -26.7160   12.9530
    51         C       -0.7180  -24.9670   13.2430
    52         H        0.2660  -25.0830   13.6980
    53         H       -0.7710  -24.0060   12.7320
    54         H       -1.4840  -25.0100   14.0170

 General Reference for PM6:
 "Optimization of Parameters for Semiempirical Methods V: Modification of NDDO Approximations
 and Application to 70 Elements", J. J. P. Stewart, J. Mol. Mod., 13, 1173-1213 (2007)
 URL: http://www.springerlink.com/content/ar33482301010477/fulltext.pdf

           Empirical Formula: C23 H26 O5  =    54 atoms



      MOLECULAR POINT GROUP   :   C1  
 
   NUMBER AND TYPES OF BONDS IDENTIFIED
 
         SIGMA BONDS               57
         LONE PAIRS                10
         NORMAL PI BONDS            6
         AROMATIC RING PI BONDS     1
 
  SCF CRITERION =    0.1000E-02


          HEAT OF FORMATION =    -193.686730 KCALS/MOLE


          INTERNAL COORDINATE DERIVATIVES

   NUMBER  ATOM       BOND         ANGLE      DIHEDRAL

     1       C
     2       C     11.408872
     3       C     10.167822    -2.507495
     4       C    -24.060024   -23.215632   -15.234991
     5       C     36.387011    21.783574    20.040958
     6       C    -47.161829   -14.101794   -12.420806
     7       C     -0.508806     6.620434   -12.530810
     8       C     31.570292    34.004515    -7.699622
     9       C    -33.046057   -32.747900     1.039404
    10       C     31.461021    18.912414    -2.105823
    11       C    -12.379669    -1.924576     5.897216
    12       O     13.835922    10.566071     3.430896
    13       O    -25.361963   -32.720247     3.721922
    14       C     14.222148   -39.856736    21.517897
    15       O    -33.710652    54.013968   -34.832793
    16       C     40.314565     5.365369    26.931707
    17       H     24.498966   -21.816754    20.244166
    18       H    -10.064001    -8.168680    -9.660990
    19       H     -8.743619    12.293172    -8.611539
    20       H    -10.754683     8.893528     9.554887
    21       H      3.482511    -7.565395    21.634472
    22       H     -2.651032    -0.407463   -17.235532
    23       H     -6.611822    13.920740    -6.762897
    24       H     -3.688542   -11.546655    -9.802912
    25       H     -7.478249   -12.368367     4.581028
    26       C      1.250831     5.642597    14.341641
    27       C     13.371301     1.824166     6.942781
    28       C    -12.599400    20.390319    10.180454
    29       C     -2.928257    -3.185556     0.573564
    30       H      8.860465   -27.511494    14.704042
    31       C      3.385150     3.095620    12.022184
    32       C      3.158550    -8.643250     2.581605
    33       H      4.438224     7.239690   -27.976635
    34       H     -3.143252     4.777676    -8.056831
    35       O      1.757804     2.460007    -7.525290
    36       H     -2.439031     8.122328    -3.584895
    37       O     23.957381   -28.264910    -3.963269
    38       H    -20.003336    10.731288    11.522607
    39       C     -7.383275     3.933808   -23.869449
    40       H     11.546055    -9.292055     6.640001
    41       H     -5.558080    -5.771563     2.686139
    42       H      4.634918     6.706817     0.114171
    43       C      2.027835     9.088668     2.342914
    44       H      1.572959     8.405019    -1.918106
    45       H      0.328292     0.288053     2.062499
    46       H      5.083066    -4.672839    -9.040961
    47       C      4.178390    -3.294204    -8.215234
    48       H      3.410421    -4.135908   -10.579789
    49       H      6.305658    -0.580397    -4.549803
    50       H     -9.614849    -1.222564    -2.870718
    51       C     -9.883715     1.136846    -2.310990
    52       H     -9.566627    -0.153289     0.452260
    53       H      1.416234    -0.675387    -2.112516
    54       H     -0.159460     3.803763     8.949359


          GRADIENT NORM = 190.51956



 ** GRADIENT IS TOO LARGE TO ALLOW FORCE MATRIX TO BE CALCULATED, (LIMIT=10) **



 EITHER ADD 'LET' OR REDUCE GRADIENT
 USING 'TS' OR OTHER GEOMETRY OPTIMIZER



 TOTAL CPU TIME:             1.32 SECONDS

 == MOPAC DONE ==
