 *******************************************************************************
 ** Site#:  958            For non-commercial use only         Version 9.015L **
 *******************************************************************************
 ** Cite this work as: MOPAC2009, James J. P. Stewart, Stewart Computational  **
 ** Chemistry, Version 9.015L web: HTTP://OpenMOPAC.net                       **
 *******************************************************************************
 **                                                                           **
 **                                MOPAC2009                                  **
 **                                                                           **
 *******************************************************************************

                            PM6 CALCULATION RESULTS


 *******************************************************************************
 *  CALCULATION DONE:                                Thu Sep  8 17:39:36 2011  *
 *  PM6      - The PM6 Hamiltonian to be used
 *  PDBOUT   - PRINT GEOMETY IN PDB FORMAT
 *  MOZYME   - USE LOCALIZED M.O.s IN SOLVING THE SCF EQUATIONS
 *
 *
 *
 *                 CHARGE ON SYSTEM =     0
 *
 *
 *
 *  EPS= 78.400
 *  RSOLV=  1.300
 *  LET      - OVERRIDE SOME SAFETY CHECKS
 *  XYZ      - CARTESIAN COORDINATE SYSTEM TO BE USED
 *  LBFGS    - USE THE LBFGS GEOMETRY OPTIMIZER
 *  1SCF     - DO 1 SCF AND THEN STOP 
 *  T=       - A TIME OF  0.3E+08 SECONDS REQUESTED
 *  DUMP=N   - RESTART FILE WRITTEN EVERY  4320.000 SECONDS
 *  DDMIN=   - MINIMUM TRUST RADIUS  0.000 ANG/RAD
 *  GNORM=   - EXIT WHEN GRADIENT NORM DROPS BELOW .150    
 *  RELSCF   - DEFAULT SCF CRITERION MULTIPLIED BY   0.100    
 *             (DEFAULT SCFCRT= 0.00010)
 *  MULLIK   - THE MULLIKEN ANALYSIS TO BE PERFORMED
 *******************************************************************************
 PM6 T=31358476 DUMP=4320 XYZ EPS=78.40 RSOLV=1.30 MULLIK LBFGS MOZYME PDBOUT +
 CHARGE=0 RELSCF=0.1 LET DDMIN=0.0 GNORM=0.15 1SCF
 SJ000002349-1_T001S001I001C09_002: Geometry optimization step

   ATOM   CHEMICAL          X               Y              Z
  NUMBER   SYMBOL      (ANGSTROMS)     (ANGSTROMS)    (ANGSTROMS)
 
     1       C         -8.9330000  *  -26.632000  *    8.131000  *
     2       C         -9.0830000  *  -25.120000  *    8.307000  *
     3       C         -8.0440000  *  -24.599000  *    9.271000  *
     4       C         -7.6220000  *  -25.390000  *   10.281000  *
     5       C         -6.5770000  *  -24.838000  *   11.229000  *
     6       C         -6.1010000  *  -23.428000  *   10.945000  *
     7       C         -6.6370000  *  -22.777000  *    9.890000  *
     8       C         -6.1870000  *  -21.370000  *    9.582000  *
     9       C         -5.8190000  *  -20.635000  *   10.871000  *
    10       C         -4.6610000  *  -21.424000  *   11.486000  *
    11       C         -5.1310000  *  -22.829000  *   11.760000  *
    12       O         -4.6660000  *  -23.448000  *   12.696000  *
    13       O         -7.5590000  *  -23.359000  *    9.109000  *
    14       C         -8.1280000  *  -26.684000  *   10.461000  *
    15       O         -7.7300000  *  -27.364000  *   11.385000  *
    16       C         -9.1610000  *  -27.240000  *    9.516000  *
    17       H         -8.9560000  *  -24.632000  *    7.342000  *
    18       H        -10.0780000  *  -24.900000  *    8.696000  *
    19       H         -6.9870000  *  -24.859000  *   12.239000  *
    20       H         -5.3170000  *  -21.404000  *    8.926000  *
    21       H         -6.9940000  *  -20.834000  *    9.081000  *
    22       H         -3.8230000  *  -21.447000  *   10.790000  *
    23       H         -4.3510000  *  -20.953000  *   12.419000  *
    24       H        -10.1590000  *  -26.981000  *    9.870000  *
    25       H         -9.0620000  *  -28.324000  *    9.461000  *
    26       C         -5.3800000  *  -25.753000  *   11.193000  *
    27       C         -4.8520000  *  -26.252000  *   12.376000  *
    28       C         -3.7510000  *  -27.094000  *   12.341000  *
    29       C         -3.1800000  *  -27.435000  *   11.125000  *
    30       H         -3.3390000  *  -27.483000  *   13.261000  *
    31       C         -3.7100000  *  -26.934000  *    9.946000  *
    32       C         -4.8110000  *  -26.100000  *    9.981000  *
    33       H         -3.2660000  *  -27.200000  *    8.998000  *
    34       H         -5.2230000  *  -25.710000  *    9.062000  *
    35       O         -5.4150000  *  -25.916000  *   13.565000  *
    36       H         -5.4750000  *  -24.963000  *   13.717000  *
    37       O         -2.1000000  *  -28.261000  *   11.090000  *
    38       H         -2.3220000  *  -29.192000  *   10.952000  *
    39       C         -9.9790000  *  -27.155000  *    7.145000  *
    40       H        -10.2720000  *  -28.167000  *    7.429000  *
    41       H        -10.8540000  *  -26.505000  *    7.164000  *
    42       H         -9.5570000  *  -27.168000  *    6.141000  *
    43       C         -7.5250000  *  -26.968000  *    7.633000  *
    44       H         -7.0200000  *  -27.595000  *    8.366000  *
    45       H         -7.5940000  *  -27.500000  *    6.684000  *
    46       H         -6.9610000  *  -26.046000  *    7.491000  *
    47       C         -5.3750000  *  -19.206000  *   10.557000  *
    48       H         -4.3410000  *  -19.213000  *   10.215000  *
    49       H         -6.0140000  *  -18.791000  *    9.776000  *
    50       H         -5.4570000  *  -18.594000  *   11.455000  *
    51       C         -7.0130000  *  -20.619000  *   11.829000  *
    52       H         -7.2860000  *  -19.588000  *   12.051000  *
    53       H         -7.8580000  *  -21.126000  *   11.364000  *
    54       H         -6.7440000  *  -21.132000  *   12.753000  *
 


          CARTESIAN COORDINATES 

    NO.       ATOM         X         Y         Z

     1         C       -8.9330  -26.6320    8.1310
     2         C       -9.0830  -25.1200    8.3070
     3         C       -8.0440  -24.5990    9.2710
     4         C       -7.6220  -25.3900   10.2810
     5         C       -6.5770  -24.8380   11.2290
     6         C       -6.1010  -23.4280   10.9450
     7         C       -6.6370  -22.7770    9.8900
     8         C       -6.1870  -21.3700    9.5820
     9         C       -5.8190  -20.6350   10.8710
    10         C       -4.6610  -21.4240   11.4860
    11         C       -5.1310  -22.8290   11.7600
    12         O       -4.6660  -23.4480   12.6960
    13         O       -7.5590  -23.3590    9.1090
    14         C       -8.1280  -26.6840   10.4610
    15         O       -7.7300  -27.3640   11.3850
    16         C       -9.1610  -27.2400    9.5160
    17         H       -8.9560  -24.6320    7.3420
    18         H      -10.0780  -24.9000    8.6960
    19         H       -6.9870  -24.8590   12.2390
    20         H       -5.3170  -21.4040    8.9260
    21         H       -6.9940  -20.8340    9.0810
    22         H       -3.8230  -21.4470   10.7900
    23         H       -4.3510  -20.9530   12.4190
    24         H      -10.1590  -26.9810    9.8700
    25         H       -9.0620  -28.3240    9.4610
    26         C       -5.3800  -25.7530   11.1930
    27         C       -4.8520  -26.2520   12.3760
    28         C       -3.7510  -27.0940   12.3410
    29         C       -3.1800  -27.4350   11.1250
    30         H       -3.3390  -27.4830   13.2610
    31         C       -3.7100  -26.9340    9.9460
    32         C       -4.8110  -26.1000    9.9810
    33         H       -3.2660  -27.2000    8.9980
    34         H       -5.2230  -25.7100    9.0620
    35         O       -5.4150  -25.9160   13.5650
    36         H       -5.4750  -24.9630   13.7170
    37         O       -2.1000  -28.2610   11.0900
    38         H       -2.3220  -29.1920   10.9520
    39         C       -9.9790  -27.1550    7.1450
    40         H      -10.2720  -28.1670    7.4290
    41         H      -10.8540  -26.5050    7.1640
    42         H       -9.5570  -27.1680    6.1410
    43         C       -7.5250  -26.9680    7.6330
    44         H       -7.0200  -27.5950    8.3660
    45         H       -7.5940  -27.5000    6.6840
    46         H       -6.9610  -26.0460    7.4910
    47         C       -5.3750  -19.2060   10.5570
    48         H       -4.3410  -19.2130   10.2150
    49         H       -6.0140  -18.7910    9.7760
    50         H       -5.4570  -18.5940   11.4550
    51         C       -7.0130  -20.6190   11.8290
    52         H       -7.2860  -19.5880   12.0510
    53         H       -7.8580  -21.1260   11.3640
    54         H       -6.7440  -21.1320   12.7530

 General Reference for PM6:
 "Optimization of Parameters for Semiempirical Methods V: Modification of NDDO Approximations
 and Application to 70 Elements", J. J. P. Stewart, J. Mol. Mod., 13, 1173-1213 (2007)
 URL: http://www.springerlink.com/content/ar33482301010477/fulltext.pdf

           Empirical Formula: C23 H26 O5  =    54 atoms



      MOLECULAR POINT GROUP   :   C1  
 
   NUMBER AND TYPES OF BONDS IDENTIFIED
 
         SIGMA BONDS               57
         LONE PAIRS                10
         NORMAL PI BONDS            6
         AROMATIC RING PI BONDS     1
 

                  Ramachandran Angles
              Residue    phi    psi  omega

  
  SCF CRITERION =    0.1000E-02

 -------------------------------------------------------------------------------
 PM6 T=31358476 DUMP=4320 XYZ EPS=78.40 RSOLV=1.30 MULLIK LBFGS MOZYME PDBOUT +
 CHARGE=0 RELSCF=0.1 LET DDMIN=0.0 GNORM=0.15 1SCF
 SJ000002349-1_T001S001I001C09_002: Geometry optimization step



     1SCF WAS SPECIFIED, SO BFGS WAS NOT USED                 
     SCF FIELD WAS ACHIEVED                                   


                               PM6     CALCULATION
                                                       MOPAC2009 (Version: 9.015L)
                                                       Thu Sep  8 17:39:36 2011




          FINAL HEAT OF FORMATION =       -186.36689 KCAL =    -779.75905 KJ
          VAN DER WAALS AREA      =        358.71 SQUARE ANGSTROMS


          TOTAL ENERGY            =      -4640.93245 EV
          ELECTRONIC ENERGY       =     -41858.24753 EV
          CORE-CORE REPULSION     =      37217.31508 EV
          DIELECTRIC ENERGY       =         -1.42141 EV
          COSMO AREA              =        358.71 SQUARE ANGSTROMS
          COSMO VOLUME            =        447.95 CUBIC ANGSTROMS

          NO. OF FILLED LEVELS    =         74
          MOLECULAR WEIGHT        =        382.455

          MOLECULAR DIMENSIONS (Angstroms)

            Atom       Atom       Distance
            H    49    H    38    11.09931
            H    23    H    41     9.72442
            H    36    H    33     4.86202


          SCF CALCULATIONS        =          2
          COMPUTATION TIME        =          0.549 SECONDS




   ATOM           CHEMICAL             X               Y              Z
  NUMBER           SYMBOL         (ANGSTROMS)     (ANGSTROMS)    (ANGSTROMS)
 
     1       C(     1  C     )   -8.9330000  *  -26.632000  *    8.131000  *
     2       C(     2  C     )   -9.0830000  *  -25.120000  *    8.307000  *
     3       C(     3  C     )   -8.0440000  *  -24.599000  *    9.271000  *
     4       C(     4  C     )   -7.6220000  *  -25.390000  *   10.281000  *
     5       C(     5  C     )   -6.5770000  *  -24.838000  *   11.229000  *
     6       C(     6  C     )   -6.1010000  *  -23.428000  *   10.945000  *
     7       C(     7  C     )   -6.6370000  *  -22.777000  *    9.890000  *
     8       C(     8  C     )   -6.1870000  *  -21.370000  *    9.582000  *
     9       C(     9  C     )   -5.8190000  *  -20.635000  *   10.871000  *
    10       C(    10  C     )   -4.6610000  *  -21.424000  *   11.486000  *
    11       C(    11  C     )   -5.1310000  *  -22.829000  *   11.760000  *
    12       O(    12  O     )   -4.6660000  *  -23.448000  *   12.696000  *
    13       O(    13  O     )   -7.5590000  *  -23.359000  *    9.109000  *
    14       C(    14  C     )   -8.1280000  *  -26.684000  *   10.461000  *
    15       O(    15  O     )   -7.7300000  *  -27.364000  *   11.385000  *
    16       C(    16  C     )   -9.1610000  *  -27.240000  *    9.516000  *
    17       H(    17  C     )   -8.9560000  *  -24.632000  *    7.342000  *
    18       H(    18  C     )  -10.0780000  *  -24.900000  *    8.696000  *
    19       H(    19  C     )   -6.9870000  *  -24.859000  *   12.239000  *
    20       H(    20  C     )   -5.3170000  *  -21.404000  *    8.926000  *
    21       H(    21  C     )   -6.9940000  *  -20.834000  *    9.081000  *
    22       H(    22  C     )   -3.8230000  *  -21.447000  *   10.790000  *
    23       H(    23  C     )   -4.3510000  *  -20.953000  *   12.419000  *
    24       H(    24  C     )  -10.1590000  *  -26.981000  *    9.870000  *
    25       H(    25  C     )   -9.0620000  *  -28.324000  *    9.461000  *
    26       C(    26  C     )   -5.3800000  *  -25.753000  *   11.193000  *
    27       C(    27  C     )   -4.8520000  *  -26.252000  *   12.376000  *
    28       C(    28  C     )   -3.7510000  *  -27.094000  *   12.341000  *
    29       C(    29  C     )   -3.1800000  *  -27.435000  *   11.125000  *
    30       H(    30  C     )   -3.3390000  *  -27.483000  *   13.261000  *
    31       C(    31  C     )   -3.7100000  *  -26.934000  *    9.946000  *
    32       C(    32  C     )   -4.8110000  *  -26.100000  *    9.981000  *
    33       H(    33  C     )   -3.2660000  *  -27.200000  *    8.998000  *
    34       H(    34  C     )   -5.2230000  *  -25.710000  *    9.062000  *
    35       O(    35  O     )   -5.4150000  *  -25.916000  *   13.565000  *
    36       H(    36  O     )   -5.4750000  *  -24.963000  *   13.717000  *
    37       O(    37  O     )   -2.1000000  *  -28.261000  *   11.090000  *
    38       H(    38  O     )   -2.3220000  *  -29.192000  *   10.952000  *
    39       C(    39  C     )   -9.9790000  *  -27.155000  *    7.145000  *
    40       H(    40  C     )  -10.2720000  *  -28.167000  *    7.429000  *
    41       H(    41  C     )  -10.8540000  *  -26.505000  *    7.164000  *
    42       H(    42  C     )   -9.5570000  *  -27.168000  *    6.141000  *
    43       C(    43  C     )   -7.5250000  *  -26.968000  *    7.633000  *
    44       H(    44  C     )   -7.0200000  *  -27.595000  *    8.366000  *
    45       H(    45  C     )   -7.5940000  *  -27.500000  *    6.684000  *
    46       H(    46  C     )   -6.9610000  *  -26.046000  *    7.491000  *
    47       C(    47  C     )   -5.3750000  *  -19.206000  *   10.557000  *
    48       H(    48  C     )   -4.3410000  *  -19.213000  *   10.215000  *
    49       H(    49  C     )   -6.0140000  *  -18.791000  *    9.776000  *
    50       H(    50  C     )   -5.4570000  *  -18.594000  *   11.455000  *
    51       C(    51  C     )   -7.0130000  *  -20.619000  *   11.829000  *
    52       H(    52  C     )   -7.2860000  *  -19.588000  *   12.051000  *
    53       H(    53  C     )   -7.8580000  *  -21.126000  *   11.364000  *
    54       H(    54  C     )   -6.7440000  *  -21.132000  *   12.753000  *

           Empirical Formula: C23 H26 O5  =    54 atoms



              NET ATOMIC CHARGES AND DIPOLE CONTRIBUTIONS

  ATOM NO.   TYPE          CHARGE      No. of ELECS.   s-Pop       p-Pop       
    1          C           0.289646        3.7104     1.06308     2.64727
    2          C          -0.422325        4.4223     1.10787     3.31446
    3          C           0.456099        3.5439     1.10172     2.44218
    4          C          -0.497804        4.4978     1.10974     3.38806
    5          C           0.126981        3.8730     1.04901     2.82401
    6          C          -0.509690        4.5097     1.10959     3.40010
    7          C           0.469046        3.5310     1.10132     2.42963
    8          C          -0.426004        4.4260     1.10764     3.31837
    9          C           0.289792        3.7102     1.06308     2.64713
   10          C          -0.529801        4.5298     1.11833     3.41147
   11          C           0.675675        3.3243     1.07233     2.25199
   12          O          -0.644653        6.6447     1.84152     4.80313
   13          O          -0.351196        6.3512     1.77138     4.57982
   14          C           0.671835        3.3282     1.07083     2.25734
   15          O          -0.630579        6.6306     1.84421     4.78637
   16          C          -0.534086        4.5341     1.11875     3.41534
   17          H           0.199192        0.8008     0.80081
   18          H           0.207773        0.7922     0.79223
   19          H           0.142781        0.8572     0.85722
   20          H           0.209409        0.7906     0.79059
   21          H           0.200032        0.8000     0.79997
   22          H           0.208063        0.7919     0.79194
   23          H           0.202534        0.7975     0.79747
   24          H           0.207143        0.7929     0.79286
   25          H           0.201190        0.7988     0.79881
   26          C          -0.198972        4.1990     1.09905     3.09993
   27          C           0.406043        3.5940     1.05816     2.53580
   28          C          -0.450195        4.4502     1.10909     3.34110
   29          C           0.385327        3.6147     1.05622     2.55845
   30          H           0.202169        0.7978     0.79783
   31          C          -0.372898        4.3729     1.10698     3.26592
   32          C          -0.004134        4.0041     1.09683     2.90730
   33          H           0.187528        0.8125     0.81247
   34          H           0.155908        0.8441     0.84409
   35          O          -0.562241        6.5622     1.77452     4.78772
   36          H           0.374350        0.6257     0.62565
   37          O          -0.574378        6.5744     1.77249     4.80189
   38          H           0.376828        0.6232     0.62317
   39          C          -0.545917        4.5459     1.09567     3.45024
   40          H           0.174165        0.8258     0.82584
   41          H           0.170807        0.8292     0.82919
   42          H           0.173339        0.8267     0.82666
   43          C          -0.559214        4.5592     1.09789     3.46133
   44          H           0.170607        0.8294     0.82939
   45          H           0.177374        0.8226     0.82263
   46          H           0.169155        0.8308     0.83085
   47          C          -0.545431        4.5454     1.09521     3.45022
   48          H           0.171042        0.8290     0.82896
   49          H           0.173465        0.8265     0.82654
   50          H           0.174928        0.8251     0.82507
   51          C          -0.559652        4.5597     1.09751     3.46214
   52          H           0.176368        0.8236     0.82363
   53          H           0.171332        0.8287     0.82867
   54          H           0.171243        0.8288     0.82876


          CARTESIAN COORDINATES 

    NO.       ATOM               X         Y         Z

     1         C                 -8.9330  -26.6320    8.1310
     2         C                 -9.0830  -25.1200    8.3070
     3         C                 -8.0440  -24.5990    9.2710
     4         C                 -7.6220  -25.3900   10.2810
     5         C                 -6.5770  -24.8380   11.2290
     6         C                 -6.1010  -23.4280   10.9450
     7         C                 -6.6370  -22.7770    9.8900
     8         C                 -6.1870  -21.3700    9.5820
     9         C                 -5.8190  -20.6350   10.8710
    10         C                 -4.6610  -21.4240   11.4860
    11         C                 -5.1310  -22.8290   11.7600
    12         O                 -4.6660  -23.4480   12.6960
    13         O                 -7.5590  -23.3590    9.1090
    14         C                 -8.1280  -26.6840   10.4610
    15         O                 -7.7300  -27.3640   11.3850
    16         C                 -9.1610  -27.2400    9.5160
    17         H                 -8.9560  -24.6320    7.3420
    18         H                -10.0780  -24.9000    8.6960
    19         H                 -6.9870  -24.8590   12.2390
    20         H                 -5.3170  -21.4040    8.9260
    21         H                 -6.9940  -20.8340    9.0810
    22         H                 -3.8230  -21.4470   10.7900
    23         H                 -4.3510  -20.9530   12.4190
    24         H                -10.1590  -26.9810    9.8700
    25         H                 -9.0620  -28.3240    9.4610
    26         C                 -5.3800  -25.7530   11.1930
    27         C                 -4.8520  -26.2520   12.3760
    28         C                 -3.7510  -27.0940   12.3410
    29         C                 -3.1800  -27.4350   11.1250
    30         H                 -3.3390  -27.4830   13.2610
    31         C                 -3.7100  -26.9340    9.9460
    32         C                 -4.8110  -26.1000    9.9810
    33         H                 -3.2660  -27.2000    8.9980
    34         H                 -5.2230  -25.7100    9.0620
    35         O                 -5.4150  -25.9160   13.5650
    36         H                 -5.4750  -24.9630   13.7170
    37         O                 -2.1000  -28.2610   11.0900
    38         H                 -2.3220  -29.1920   10.9520
    39         C                 -9.9790  -27.1550    7.1450
    40         H                -10.2720  -28.1670    7.4290
    41         H                -10.8540  -26.5050    7.1640
    42         H                 -9.5570  -27.1680    6.1410
    43         C                 -7.5250  -26.9680    7.6330
    44         H                 -7.0200  -27.5950    8.3660
    45         H                 -7.5940  -27.5000    6.6840
    46         H                 -6.9610  -26.0460    7.4910
    47         C                 -5.3750  -19.2060   10.5570
    48         H                 -4.3410  -19.2130   10.2150
    49         H                 -6.0140  -18.7910    9.7760
    50         H                 -5.4570  -18.5940   11.4550
    51         C                 -7.0130  -20.6190   11.8290
    52         H                 -7.2860  -19.5880   12.0510
    53         H                 -7.8580  -21.1260   11.3640
    54         H                 -6.7440  -21.1320   12.7530


          ATOMIC ORBITAL ELECTRON POPULATIONS

   1.06308   0.91410   0.84908   0.88409   1.10787   1.09465   1.09507   1.12474
   1.10172   0.82144   0.73806   0.88269   1.10974   1.17475   1.09046   1.12285
   1.04901   0.91596   0.87120   1.03685   1.10959   1.18365   1.08666   1.12979
   1.10132   0.74350   0.87785   0.80828   1.10764   1.18399   0.99450   1.13988
   1.06308   0.88566   0.89707   0.86439   1.11833   1.13994   1.07150   1.20004
   1.07233   0.70815   0.81678   0.72706   1.84152   1.63883   1.71270   1.45160
   1.77138   1.55826   1.40551   1.61605   1.07083   0.71494   0.80251   0.73989
   1.84421   1.64380   1.68448   1.45808   1.11875   1.15023   1.18135   1.08375
   0.80081   0.79223   0.85722   0.79059   0.79997   0.79194   0.79747   0.79286
   0.79881   1.09905   1.04100   1.06632   0.99261   1.05816   0.85959   0.88647
   0.78973   1.10909   1.07121   1.16669   1.10320   1.05622   0.78879   0.84950
   0.92016   0.79783   1.10698   1.06911   1.10895   1.08786   1.09683   0.94255
   0.93169   1.03306   0.81247   0.84409   1.77452   1.82953   1.46432   1.49386
   0.62565   1.77249   1.48032   1.36391   1.95766   0.62317   1.09567   1.13292
   1.17952   1.13780   0.82584   0.82919   0.82666   1.09789   1.08688   1.18784
   1.18661   0.82939   0.82263   0.83085   1.09521   1.18312   1.07569   1.19140
   0.82896   0.82654   0.82507   1.09751   1.11653   1.20138   1.14424   0.82363
   0.82867   0.82876

           MULLIKEN POPULATION ANALYSIS



        MULLIKEN POPULATIONS AND CHARGES

      NO.  ATOM   POPULATION      CHARGE
        1    C     3.681089      0.318911
        2    C     4.542214     -0.542214
        3    C     3.519969      0.480031
        4    C     4.548384     -0.548384
        5    C     3.870561      0.129439
        6    C     4.560915     -0.560915
        7    C     3.506060      0.493940
        8    C     4.546570     -0.546570
        9    C     3.681112      0.318888
       10    C     4.661029     -0.661029
       11    C     3.270922      0.729078
       12    O     6.672081     -0.672081
       13    O     6.400167     -0.400167
       14    C     3.274090      0.725910
       15    O     6.655623     -0.655623
       16    C     4.665591     -0.665591
       17    H     0.743220      0.256780
       18    H     0.735165      0.264835
       19    H     0.810831      0.189169
       20    H     0.732884      0.267116
       21    H     0.742662      0.257338
       22    H     0.735336      0.264664
       23    H     0.739855      0.260145
       24    H     0.736385      0.263615
       25    H     0.741679      0.258321
       26    C     4.220203     -0.220203
       27    C     3.566608      0.433392
       28    C     4.525658     -0.525658
       29    C     3.590092      0.409908
       30    H     0.734603      0.265397
       31    C     4.443381     -0.443381
       32    C     4.036218     -0.036218
       33    H     0.753111      0.246889
       34    H     0.793957      0.206043
       35    O     6.613774     -0.613774
       36    H     0.589701      0.410299
       37    O     6.625581     -0.625581
       38    H     0.588230      0.411770
       39    C     4.692769     -0.692769
       40    H     0.777418      0.222582
       41    H     0.781132      0.218868
       42    H     0.778311      0.221689
       43    C     4.705496     -0.705496
       44    H     0.781608      0.218392
       45    H     0.773395      0.226605
       46    H     0.783888      0.216112
       47    C     4.692910     -0.692910
       48    H     0.780420      0.219580
       49    H     0.778091      0.221909
       50    H     0.776370      0.223630
       51    C     4.706487     -0.706487
       52    H     0.774395      0.225605
       53    H     0.780709      0.219291
       54    H     0.781090      0.218910



 TOTAL CPU TIME:             0.58 SECONDS

 == MOPAC DONE ==
 *******************************************************************************
 ** Site#:  958            For non-commercial use only         Version 9.015L **
 *******************************************************************************
 ** Cite this work as: MOPAC2009, James J. P. Stewart, Stewart Computational  **
 ** Chemistry, Version 9.015L web: HTTP://OpenMOPAC.net                       **
 *******************************************************************************
 **                                                                           **
 **                                MOPAC2009                                  **
 **                                                                           **
 *******************************************************************************

                            PM6 CALCULATION RESULTS


 *******************************************************************************
 *  CALCULATION DONE:                                Thu Sep  8 17:39:36 2011  *
 *  PM6      - The PM6 Hamiltonian to be used
 *  GEO-OK   - OVERRIDE INTERATOMIC DISTANCE CHECK
 *  MOZYME   - USE LOCALIZED M.O.s IN SOLVING THE SCF EQUATIONS
 *
 *
 *
 *                 CHARGE ON SYSTEM =     0
 *
 *
 *
 *  EPS= 78.400
 *  RSOLV=  1.300
 *  OLDGEO   - PREVIOUS GEOMETRY TO BE USED
 *  T=       - A TIME OF 172800.0 SECONDS REQUESTED
 *  DUMP=N   - RESTART FILE WRITTEN EVERY  4320.000 SECONDS
 *  RELSCF   - DEFAULT SCF CRITERION MULTIPLIED BY   0.100    
 *             (DEFAULT SCFCRT= 0.00010)
 *  THERMO   - THERMODYNAMIC QUANTITIES TO BE CALCULATED
 *******************************************************************************
 PM6 DUMP=4320 MOZYME RELSCF=0.1 THERMO EPS=78.40 RSOLV=1.30 +
 OLDGEO GEO-OK CHARGE=0
 SJ000002349-1_T001S001I001C09_002: Free energy calculation

   ATOM           CHEMICAL             X               Y              Z
  NUMBER           SYMBOL         (ANGSTROMS)     (ANGSTROMS)    (ANGSTROMS)
 
     1       C(     1  C     )   -8.9330000  *  -26.632000  *    8.131000  *
     2       C(     2  C     )   -9.0830000  *  -25.120000  *    8.307000  *
     3       C(     3  C     )   -8.0440000  *  -24.599000  *    9.271000  *
     4       C(     4  C     )   -7.6220000  *  -25.390000  *   10.281000  *
     5       C(     5  C     )   -6.5770000  *  -24.838000  *   11.229000  *
     6       C(     6  C     )   -6.1010000  *  -23.428000  *   10.945000  *
     7       C(     7  C     )   -6.6370000  *  -22.777000  *    9.890000  *
     8       C(     8  C     )   -6.1870000  *  -21.370000  *    9.582000  *
     9       C(     9  C     )   -5.8190000  *  -20.635000  *   10.871000  *
    10       C(    10  C     )   -4.6610000  *  -21.424000  *   11.486000  *
    11       C(    11  C     )   -5.1310000  *  -22.829000  *   11.760000  *
    12       O(    12  O     )   -4.6660000  *  -23.448000  *   12.696000  *
    13       O(    13  O     )   -7.5590000  *  -23.359000  *    9.109000  *
    14       C(    14  C     )   -8.1280000  *  -26.684000  *   10.461000  *
    15       O(    15  O     )   -7.7300000  *  -27.364000  *   11.385000  *
    16       C(    16  C     )   -9.1610000  *  -27.240000  *    9.516000  *
    17       H(    17  C     )   -8.9560000  *  -24.632000  *    7.342000  *
    18       H(    18  C     )  -10.0780000  *  -24.900000  *    8.696000  *
    19       H(    19  C     )   -6.9870000  *  -24.859000  *   12.239000  *
    20       H(    20  C     )   -5.3170000  *  -21.404000  *    8.926000  *
    21       H(    21  C     )   -6.9940000  *  -20.834000  *    9.081000  *
    22       H(    22  C     )   -3.8230000  *  -21.447000  *   10.790000  *
    23       H(    23  C     )   -4.3510000  *  -20.953000  *   12.419000  *
    24       H(    24  C     )  -10.1590000  *  -26.981000  *    9.870000  *
    25       H(    25  C     )   -9.0620000  *  -28.324000  *    9.461000  *
    26       C(    26  C     )   -5.3800000  *  -25.753000  *   11.193000  *
    27       C(    27  C     )   -4.8520000  *  -26.252000  *   12.376000  *
    28       C(    28  C     )   -3.7510000  *  -27.094000  *   12.341000  *
    29       C(    29  C     )   -3.1800000  *  -27.435000  *   11.125000  *
    30       H(    30  C     )   -3.3390000  *  -27.483000  *   13.261000  *
    31       C(    31  C     )   -3.7100000  *  -26.934000  *    9.946000  *
    32       C(    32  C     )   -4.8110000  *  -26.100000  *    9.981000  *
    33       H(    33  C     )   -3.2660000  *  -27.200000  *    8.998000  *
    34       H(    34  C     )   -5.2230000  *  -25.710000  *    9.062000  *
    35       O(    35  O     )   -5.4150000  *  -25.916000  *   13.565000  *
    36       H(    36  O     )   -5.4750000  *  -24.963000  *   13.717000  *
    37       O(    37  O     )   -2.1000000  *  -28.261000  *   11.090000  *
    38       H(    38  O     )   -2.3220000  *  -29.192000  *   10.952000  *
    39       C(    39  C     )   -9.9790000  *  -27.155000  *    7.145000  *
    40       H(    40  C     )  -10.2720000  *  -28.167000  *    7.429000  *
    41       H(    41  C     )  -10.8540000  *  -26.505000  *    7.164000  *
    42       H(    42  C     )   -9.5570000  *  -27.168000  *    6.141000  *
    43       C(    43  C     )   -7.5250000  *  -26.968000  *    7.633000  *
    44       H(    44  C     )   -7.0200000  *  -27.595000  *    8.366000  *
    45       H(    45  C     )   -7.5940000  *  -27.500000  *    6.684000  *
    46       H(    46  C     )   -6.9610000  *  -26.046000  *    7.491000  *
    47       C(    47  C     )   -5.3750000  *  -19.206000  *   10.557000  *
    48       H(    48  C     )   -4.3410000  *  -19.213000  *   10.215000  *
    49       H(    49  C     )   -6.0140000  *  -18.791000  *    9.776000  *
    50       H(    50  C     )   -5.4570000  *  -18.594000  *   11.455000  *
    51       C(    51  C     )   -7.0130000  *  -20.619000  *   11.829000  *
    52       H(    52  C     )   -7.2860000  *  -19.588000  *   12.051000  *
    53       H(    53  C     )   -7.8580000  *  -21.126000  *   11.364000  *
    54       H(    54  C     )   -6.7440000  *  -21.132000  *   12.753000  *
 


          CARTESIAN COORDINATES 

    NO.       ATOM         X         Y         Z

     1         C       -8.9330  -26.6320    8.1310
     2         C       -9.0830  -25.1200    8.3070
     3         C       -8.0440  -24.5990    9.2710
     4         C       -7.6220  -25.3900   10.2810
     5         C       -6.5770  -24.8380   11.2290
     6         C       -6.1010  -23.4280   10.9450
     7         C       -6.6370  -22.7770    9.8900
     8         C       -6.1870  -21.3700    9.5820
     9         C       -5.8190  -20.6350   10.8710
    10         C       -4.6610  -21.4240   11.4860
    11         C       -5.1310  -22.8290   11.7600
    12         O       -4.6660  -23.4480   12.6960
    13         O       -7.5590  -23.3590    9.1090
    14         C       -8.1280  -26.6840   10.4610
    15         O       -7.7300  -27.3640   11.3850
    16         C       -9.1610  -27.2400    9.5160
    17         H       -8.9560  -24.6320    7.3420
    18         H      -10.0780  -24.9000    8.6960
    19         H       -6.9870  -24.8590   12.2390
    20         H       -5.3170  -21.4040    8.9260
    21         H       -6.9940  -20.8340    9.0810
    22         H       -3.8230  -21.4470   10.7900
    23         H       -4.3510  -20.9530   12.4190
    24         H      -10.1590  -26.9810    9.8700
    25         H       -9.0620  -28.3240    9.4610
    26         C       -5.3800  -25.7530   11.1930
    27         C       -4.8520  -26.2520   12.3760
    28         C       -3.7510  -27.0940   12.3410
    29         C       -3.1800  -27.4350   11.1250
    30         H       -3.3390  -27.4830   13.2610
    31         C       -3.7100  -26.9340    9.9460
    32         C       -4.8110  -26.1000    9.9810
    33         H       -3.2660  -27.2000    8.9980
    34         H       -5.2230  -25.7100    9.0620
    35         O       -5.4150  -25.9160   13.5650
    36         H       -5.4750  -24.9630   13.7170
    37         O       -2.1000  -28.2610   11.0900
    38         H       -2.3220  -29.1920   10.9520
    39         C       -9.9790  -27.1550    7.1450
    40         H      -10.2720  -28.1670    7.4290
    41         H      -10.8540  -26.5050    7.1640
    42         H       -9.5570  -27.1680    6.1410
    43         C       -7.5250  -26.9680    7.6330
    44         H       -7.0200  -27.5950    8.3660
    45         H       -7.5940  -27.5000    6.6840
    46         H       -6.9610  -26.0460    7.4910
    47         C       -5.3750  -19.2060   10.5570
    48         H       -4.3410  -19.2130   10.2150
    49         H       -6.0140  -18.7910    9.7760
    50         H       -5.4570  -18.5940   11.4550
    51         C       -7.0130  -20.6190   11.8290
    52         H       -7.2860  -19.5880   12.0510
    53         H       -7.8580  -21.1260   11.3640
    54         H       -6.7440  -21.1320   12.7530

 General Reference for PM6:
 "Optimization of Parameters for Semiempirical Methods V: Modification of NDDO Approximations
 and Application to 70 Elements", J. J. P. Stewart, J. Mol. Mod., 13, 1173-1213 (2007)
 URL: http://www.springerlink.com/content/ar33482301010477/fulltext.pdf

           Empirical Formula: C23 H26 O5  =    54 atoms



      MOLECULAR POINT GROUP   :   C1  
 
   NUMBER AND TYPES OF BONDS IDENTIFIED
 
         SIGMA BONDS               57
         LONE PAIRS                10
         NORMAL PI BONDS            6
         AROMATIC RING PI BONDS     1
 
  SCF CRITERION =    0.1000E-02


          HEAT OF FORMATION =    -186.366746 KCALS/MOLE


          INTERNAL COORDINATE DERIVATIVES

   NUMBER  ATOM       BOND         ANGLE      DIHEDRAL

     1       C
     2       C      9.938144
     3       C      6.558334    -1.954519
     4       C    -30.822803   -18.834101   -18.531341
     5       C     37.575471     9.600319    24.544626
     6       C    -70.362830   -18.071294   -27.669205
     7       C     10.494753    -7.831138    -5.617300
     8       C     35.236812    64.065099     7.347609
     9       C    -16.423193   -40.294552    -6.302499
    10       C     21.847176    32.393275    10.183591
    11       C    -11.361591    -5.206420     1.451671
    12       O      7.558709     5.103997    11.083532
    13       O    -17.357711   -41.342627    -7.647910
    14       C      9.271033   -40.860317    17.704804
    15       O    -38.852006    60.171937   -35.431829
    16       C     41.673269     5.589481    29.000481
    17       H     25.780341   -19.284382    22.569312
    18       H     -4.104073    -9.965205    -6.845297
    19       H     -9.175578    12.714621    -9.193107
    20       H    -10.844842     9.299198     9.041182
    21       H     -5.002765    -3.002005    22.934838
    22       H      2.643405     3.099581   -16.840988
    23       H     -7.115849    14.195891    -6.687892
    24       H      1.513891    -9.610423   -12.377821
    25       H     -5.566099   -13.667427    -0.847387
    26       C      1.021763     5.689541    14.004221
    27       C     12.621442     1.844794     7.465274
    28       C    -12.902002    19.041696    -0.499791
    29       C     -1.349532    -3.737553   -10.110767
    30       H      8.793896   -26.879885    17.850044
    31       C     -2.318494    14.486540    10.984417
    32       C      2.448416    -6.587131     3.723132
    33       H     10.574833     5.701644   -23.749329
    34       H     -2.421228     5.088476    -7.972956
    35       O      3.820023     1.341963    -7.215851
    36       H     -2.209896     7.427177    -4.718789
    37       O     19.744616   -16.472690    22.136308
    38       H    -20.015966     2.982717    -3.476526
    39       C      0.047614   -22.891053   -14.133609
    40       H     11.960085     4.903752     2.685929
    41       H     -6.014874    -6.012780     3.397027
    42       H      4.137863     6.765749    -0.282071
    43       C      2.418717     9.026887     1.641476
    44       H      2.047278     8.427564    -2.524547
    45       H     -0.839009     2.705125     2.249739
    46       H      5.634708    -5.516758    -8.530684
    47       C      4.280092    -3.602164    -7.944482
    48       H      3.903562    -4.245369    -9.934322
    49       H      8.911204     2.269276     0.088238
    50       H     -6.459470    -1.355036    -6.437380
    51       C     -7.482862     0.889116    -3.068255
    52       H     -7.126260    -2.770534    -2.226850
    53       H     -0.632920    -0.359176    -4.078636
    54       H     -3.157020     2.115281     9.071024


          GRADIENT NORM = 209.68068



 ** GRADIENT IS TOO LARGE TO ALLOW FORCE MATRIX TO BE CALCULATED, (LIMIT=10) **



 EITHER ADD 'LET' OR REDUCE GRADIENT
 USING 'TS' OR OTHER GEOMETRY OPTIMIZER



 TOTAL CPU TIME:             1.37 SECONDS

 == MOPAC DONE ==
