 *******************************************************************************
 ** Site#:  958            For non-commercial use only         Version 9.015L **
 *******************************************************************************
 ** Cite this work as: MOPAC2009, James J. P. Stewart, Stewart Computational  **
 ** Chemistry, Version 9.015L web: HTTP://OpenMOPAC.net                       **
 *******************************************************************************
 **                                                                           **
 **                                MOPAC2009                                  **
 **                                                                           **
 *******************************************************************************

                            PM6 CALCULATION RESULTS


 *******************************************************************************
 *  CALCULATION DONE:                                Wed Sep  7 08:36:55 2011  *
 *  PM6      - The PM6 Hamiltonian to be used
 *  PDBOUT   - PRINT GEOMETY IN PDB FORMAT
 *  MOZYME   - USE LOCALIZED M.O.s IN SOLVING THE SCF EQUATIONS
 *
 *
 *
 *                 CHARGE ON SYSTEM =     0
 *
 *
 *
 *  EPS= 78.400
 *  RSOLV=  1.300
 *  LET      - OVERRIDE SOME SAFETY CHECKS
 *  XYZ      - CARTESIAN COORDINATE SYSTEM TO BE USED
 *  LBFGS    - USE THE LBFGS GEOMETRY OPTIMIZER
 *  1SCF     - DO 1 SCF AND THEN STOP 
 *  T=       - A TIME OF  0.3E+08 SECONDS REQUESTED
 *  DUMP=N   - RESTART FILE WRITTEN EVERY  4320.000 SECONDS
 *  DDMIN=   - MINIMUM TRUST RADIUS  0.000 ANG/RAD
 *  GNORM=   - EXIT WHEN GRADIENT NORM DROPS BELOW .150    
 *  RELSCF   - DEFAULT SCF CRITERION MULTIPLIED BY   0.100    
 *             (DEFAULT SCFCRT= 0.00010)
 *  MULLIK   - THE MULLIKEN ANALYSIS TO BE PERFORMED
 *******************************************************************************
 PM6 T=31477437 DUMP=4320 XYZ EPS=78.40 RSOLV=1.30 MULLIK LBFGS MOZYME PDBOUT +
 CHARGE=0 RELSCF=0.1 LET DDMIN=0.0 GNORM=0.15 1SCF
 SJ000001677-1_T001S001I001C02_001: Geometry optimization step

   ATOM   CHEMICAL          X               Y              Z
  NUMBER   SYMBOL      (ANGSTROMS)     (ANGSTROMS)    (ANGSTROMS)
 
     1       C         -2.5150000  *  -26.891000  *   11.956000  *
     2       C         -3.5800000  *  -27.497000  *   11.135000  *
     3       O         -3.3170000  *  -28.377000  *   10.340000  *
     4       C         -4.9740000  *  -27.024000  *   11.294000  *
     5       C         -5.9560000  *  -27.354000  *   10.370000  *
     6       C         -7.2510000  *  -26.894000  *   10.550000  *
     7       C         -7.5710000  *  -26.108000  *   11.641000  *
     8       C         -6.6010000  *  -25.768000  *   12.571000  *
     9       C         -5.2990000  *  -26.223000  *   12.404000  *
    10       C         -4.2370000  *  -25.881000  *   13.376000  *
    11       O         -4.5220000  *  -25.404000  *   14.457000  *
    12       C         -2.8240000  *  -26.130000  *   13.019000  *
    13      Br         -1.4420000  *  -25.368000  *   14.062000  *
    14       H         -5.7120000  *  -27.968000  *    9.515000  *
    15       H         -8.0160000  *  -27.149000  *    9.832000  *
    16       H         -8.5830000  *  -25.755000  *   11.768000  *
    17       H         -6.8550000  *  -25.154000  *   13.422000  *
    18       C         -1.0700000  *  -27.130000  *   11.602000  *
    19       H         -0.5450000  *  -26.176000  *   11.551000  *
    20       H         -0.6080000  *  -27.758000  *   12.364000  *
    21       H         -1.0110000  *  -27.629000  *   10.634000  *
 


          CARTESIAN COORDINATES 

    NO.       ATOM         X         Y         Z

     1         C       -2.5150  -26.8910   11.9560
     2         C       -3.5800  -27.4970   11.1350
     3         O       -3.3170  -28.3770   10.3400
     4         C       -4.9740  -27.0240   11.2940
     5         C       -5.9560  -27.3540   10.3700
     6         C       -7.2510  -26.8940   10.5500
     7         C       -7.5710  -26.1080   11.6410
     8         C       -6.6010  -25.7680   12.5710
     9         C       -5.2990  -26.2230   12.4040
    10         C       -4.2370  -25.8810   13.3760
    11         O       -4.5220  -25.4040   14.4570
    12         C       -2.8240  -26.1300   13.0190
    13        Br       -1.4420  -25.3680   14.0620
    14         H       -5.7120  -27.9680    9.5150
    15         H       -8.0160  -27.1490    9.8320
    16         H       -8.5830  -25.7550   11.7680
    17         H       -6.8550  -25.1540   13.4220
    18         C       -1.0700  -27.1300   11.6020
    19         H       -0.5450  -26.1760   11.5510
    20         H       -0.6080  -27.7580   12.3640
    21         H       -1.0110  -27.6290   10.6340

 General Reference for PM6:
 "Optimization of Parameters for Semiempirical Methods V: Modification of NDDO Approximations
 and Application to 70 Elements", J. J. P. Stewart, J. Mol. Mod., 13, 1173-1213 (2007)
 URL: http://www.springerlink.com/content/ar33482301010477/fulltext.pdf

           Empirical Formula: C11 H7 O2 Br  =    21 atoms



      MOLECULAR POINT GROUP   :   C1  
 
   NUMBER AND TYPES OF BONDS IDENTIFIED
 
         SIGMA BONDS               22
         LONE PAIRS                 7
         NORMAL PI BONDS            3
         AROMATIC RING PI BONDS     3
 

                  Ramachandran Angles
              Residue    phi    psi  omega

  
  SCF CRITERION =    0.1000E-02

 -------------------------------------------------------------------------------
 PM6 T=31477437 DUMP=4320 XYZ EPS=78.40 RSOLV=1.30 MULLIK LBFGS MOZYME PDBOUT +
 CHARGE=0 RELSCF=0.1 LET DDMIN=0.0 GNORM=0.15 1SCF
 SJ000001677-1_T001S001I001C02_001: Geometry optimization step



     1SCF WAS SPECIFIED, SO BFGS WAS NOT USED                 
     SCF FIELD WAS ACHIEVED                                   


                               PM6     CALCULATION
                                                       MOPAC2009 (Version: 9.015L)
                                                       Wed Sep  7 08:36:55 2011




          FINAL HEAT OF FORMATION =        -29.41305 KCAL =    -123.06421 KJ
          VAN DER WAALS AREA      =        213.69 SQUARE ANGSTROMS


          TOTAL ENERGY            =      -2253.46471 EV
          ELECTRONIC ENERGY       =     -12358.23458 EV
          CORE-CORE REPULSION     =      10104.76987 EV
          DIELECTRIC ENERGY       =         -0.50830 EV
          COSMO AREA              =        213.69 SQUARE ANGSTROMS
          COSMO VOLUME            =        230.58 CUBIC ANGSTROMS

          NO. OF FILLED LEVELS    =         35
          MOLECULAR WEIGHT        =        251.079

          MOLECULAR DIMENSIONS (Angstroms)

            Atom       Atom       Distance
            H    16    H    19     8.05194
            H    14    O    11     5.61835
            H    16    H    20     1.77968


          SCF CALCULATIONS        =          2
          COMPUTATION TIME        =          0.160 SECONDS




   ATOM           CHEMICAL             X               Y              Z
  NUMBER           SYMBOL         (ANGSTROMS)     (ANGSTROMS)    (ANGSTROMS)
 
     1       C(     1  C     )   -2.5150000  *  -26.891000  *   11.956000  *
     2       C(     2  C     )   -3.5800000  *  -27.497000  *   11.135000  *
     3       O(     3  O     )   -3.3170000  *  -28.377000  *   10.340000  *
     4       C(     4  C     )   -4.9740000  *  -27.024000  *   11.294000  *
     5       C(     5  C     )   -5.9560000  *  -27.354000  *   10.370000  *
     6       C(     6  C     )   -7.2510000  *  -26.894000  *   10.550000  *
     7       C(     7  C     )   -7.5710000  *  -26.108000  *   11.641000  *
     8       C(     8  C     )   -6.6010000  *  -25.768000  *   12.571000  *
     9       C(     9  C     )   -5.2990000  *  -26.223000  *   12.404000  *
    10       C(    10  C     )   -4.2370000  *  -25.881000  *   13.376000  *
    11       O(    11  O     )   -4.5220000  *  -25.404000  *   14.457000  *
    12       C(    12  C     )   -2.8240000  *  -26.130000  *   13.019000  *
    13      Br(    13 Br     )   -1.4420000  *  -25.368000  *   14.062000  *
    14       H(    14  C     )   -5.7120000  *  -27.968000  *    9.515000  *
    15       H(    15  C     )   -8.0160000  *  -27.149000  *    9.832000  *
    16       H(    16  C     )   -8.5830000  *  -25.755000  *   11.768000  *
    17       H(    17  C     )   -6.8550000  *  -25.154000  *   13.422000  *
    18       C(    18  C     )   -1.0700000  *  -27.130000  *   11.602000  *
    19       H(    19  C     )   -0.5450000  *  -26.176000  *   11.551000  *
    20       H(    20  C     )   -0.6080000  *  -27.758000  *   12.364000  *
    21       H(    21  C     )   -1.0110000  *  -27.629000  *   10.634000  *

           Empirical Formula: C11 H7 O2 Br  =    21 atoms



              NET ATOMIC CHARGES AND DIPOLE CONTRIBUTIONS

  ATOM NO.   TYPE          CHARGE      No. of ELECS.   s-Pop       p-Pop       d-Pop       
    1          C           0.031815        3.9682     1.12629     2.84189
    2          C           0.528812        3.4712     1.10285     2.36834
    3          O          -0.504204        6.5042     1.85135     4.65285
    4          C          -0.148835        4.1488     1.10225     3.04659
    5          C          -0.075654        4.0757     1.10616     2.96950
    6          C          -0.120900        4.1209     1.10792     3.01298
    7          C          -0.122874        4.1229     1.10792     3.01496
    8          C          -0.072644        4.0726     1.10640     2.96625
    9          C          -0.152581        4.1526     1.10210     3.05048
   10          C           0.574851        3.4251     1.09435     2.33080
   11          O          -0.527487        6.5275     1.85031     4.67717
   12          C          -0.199353        4.1994     1.13130     3.06805
   13         Br          -0.023274        7.0233     1.98697     5.02739     0.00891
   14          H           0.178583        0.8214     0.82142
   15          H           0.176038        0.8240     0.82396
   16          H           0.176240        0.8238     0.82376
   17          H           0.179349        0.8207     0.82065
   18          C          -0.475272        4.4753     1.08570     3.38957
   19          H           0.194973        0.8050     0.80503
   20          H           0.198239        0.8018     0.80176
   21          H           0.184179        0.8158     0.81582


          CARTESIAN COORDINATES 

    NO.       ATOM               X         Y         Z

     1         C                 -2.5150  -26.8910   11.9560
     2         C                 -3.5800  -27.4970   11.1350
     3         O                 -3.3170  -28.3770   10.3400
     4         C                 -4.9740  -27.0240   11.2940
     5         C                 -5.9560  -27.3540   10.3700
     6         C                 -7.2510  -26.8940   10.5500
     7         C                 -7.5710  -26.1080   11.6410
     8         C                 -6.6010  -25.7680   12.5710
     9         C                 -5.2990  -26.2230   12.4040
    10         C                 -4.2370  -25.8810   13.3760
    11         O                 -4.5220  -25.4040   14.4570
    12         C                 -2.8240  -26.1300   13.0190
    13        Br                 -1.4420  -25.3680   14.0620
    14         H                 -5.7120  -27.9680    9.5150
    15         H                 -8.0160  -27.1490    9.8320
    16         H                 -8.5830  -25.7550   11.7680
    17         H                 -6.8550  -25.1540   13.4220
    18         C                 -1.0700  -27.1300   11.6020
    19         H                 -0.5450  -26.1760   11.5510
    20         H                 -0.6080  -27.7580   12.3640
    21         H                 -1.0110  -27.6290   10.6340


          ATOMIC ORBITAL ELECTRON POPULATIONS

   1.12629   1.00220   0.90622   0.93347   1.10285   0.88940   0.74246   0.73647
   1.85135   1.85837   1.37748   1.41701   1.10225   0.99830   1.03862   1.00967
   1.10616   0.96685   0.97857   1.02408   1.10792   1.02680   0.96591   1.02028
   1.10792   1.07257   0.97323   0.96915   1.10640   0.95437   0.97959   1.03228
   1.10210   1.00545   1.04082   1.00421   1.09435   0.86990   0.65685   0.80405
   1.85031   1.85970   1.44539   1.37209   1.13130   0.97428   1.06971   1.02406
   1.98697   1.49100   1.82773   1.70866   0.00166   0.00258   0.00131   0.00176
   0.00161   0.82142   0.82396   0.82376   0.82065   1.08570   0.99873   1.19738
   1.19345   0.80503   0.80176   0.81582

           MULLIKEN POPULATION ANALYSIS



        MULLIKEN POPULATIONS AND CHARGES

      NO.  ATOM   POPULATION      CHARGE
        1    C     3.990805      0.009195
        2    C     3.443269      0.556731
        3    O     6.526717     -0.526717
        4    C     4.163940     -0.163940
        5    C     4.119686     -0.119686
        6    C     4.177016     -0.177016
        7    C     4.179318     -0.179318
        8    C     4.116621     -0.116621
        9    C     4.169574     -0.169574
       10    C     3.399860      0.600140
       11    O     6.552986     -0.552986
       12    C     4.378872     -0.378872
       13   Br     6.810326      0.189674
       14    H     0.764517      0.235483
       15    H     0.767521      0.232479
       16    H     0.767213      0.232787
       17    H     0.763411      0.236589
       18    C     4.627577     -0.627577
       19    H     0.763329      0.236671
       20    H     0.754228      0.245772
       21    H     0.763216      0.236784



 TOTAL CPU TIME:             0.16 SECONDS

 == MOPAC DONE ==
 *******************************************************************************
 ** Site#:  958            For non-commercial use only         Version 9.015L **
 *******************************************************************************
 ** Cite this work as: MOPAC2009, James J. P. Stewart, Stewart Computational  **
 ** Chemistry, Version 9.015L web: HTTP://OpenMOPAC.net                       **
 *******************************************************************************
 **                                                                           **
 **                                MOPAC2009                                  **
 **                                                                           **
 *******************************************************************************

                            PM6 CALCULATION RESULTS


 *******************************************************************************
 *  CALCULATION DONE:                                Wed Sep  7 08:36:55 2011  *
 *  PM6      - The PM6 Hamiltonian to be used
 *  GEO-OK   - OVERRIDE INTERATOMIC DISTANCE CHECK
 *  MOZYME   - USE LOCALIZED M.O.s IN SOLVING THE SCF EQUATIONS
 *
 *
 *
 *                 CHARGE ON SYSTEM =     0
 *
 *
 *
 *  EPS= 78.400
 *  RSOLV=  1.300
 *  OLDGEO   - PREVIOUS GEOMETRY TO BE USED
 *  T=       - A TIME OF 172800.0 SECONDS REQUESTED
 *  DUMP=N   - RESTART FILE WRITTEN EVERY  4320.000 SECONDS
 *  RELSCF   - DEFAULT SCF CRITERION MULTIPLIED BY   0.100    
 *             (DEFAULT SCFCRT= 0.00010)
 *  THERMO   - THERMODYNAMIC QUANTITIES TO BE CALCULATED
 *******************************************************************************
 PM6 DUMP=4320 MOZYME RELSCF=0.1 THERMO EPS=78.40 RSOLV=1.30 +
 OLDGEO GEO-OK CHARGE=0
 SJ000001677-1_T001S001I001C02_001: Free energy calculation

   ATOM           CHEMICAL             X               Y              Z
  NUMBER           SYMBOL         (ANGSTROMS)     (ANGSTROMS)    (ANGSTROMS)
 
     1       C(     1  C     )   -2.5150000  *  -26.891000  *   11.956000  *
     2       C(     2  C     )   -3.5800000  *  -27.497000  *   11.135000  *
     3       O(     3  O     )   -3.3170000  *  -28.377000  *   10.340000  *
     4       C(     4  C     )   -4.9740000  *  -27.024000  *   11.294000  *
     5       C(     5  C     )   -5.9560000  *  -27.354000  *   10.370000  *
     6       C(     6  C     )   -7.2510000  *  -26.894000  *   10.550000  *
     7       C(     7  C     )   -7.5710000  *  -26.108000  *   11.641000  *
     8       C(     8  C     )   -6.6010000  *  -25.768000  *   12.571000  *
     9       C(     9  C     )   -5.2990000  *  -26.223000  *   12.404000  *
    10       C(    10  C     )   -4.2370000  *  -25.881000  *   13.376000  *
    11       O(    11  O     )   -4.5220000  *  -25.404000  *   14.457000  *
    12       C(    12  C     )   -2.8240000  *  -26.130000  *   13.019000  *
    13      Br(    13 Br     )   -1.4420000  *  -25.368000  *   14.062000  *
    14       H(    14  C     )   -5.7120000  *  -27.968000  *    9.515000  *
    15       H(    15  C     )   -8.0160000  *  -27.149000  *    9.832000  *
    16       H(    16  C     )   -8.5830000  *  -25.755000  *   11.768000  *
    17       H(    17  C     )   -6.8550000  *  -25.154000  *   13.422000  *
    18       C(    18  C     )   -1.0700000  *  -27.130000  *   11.602000  *
    19       H(    19  C     )   -0.5450000  *  -26.176000  *   11.551000  *
    20       H(    20  C     )   -0.6080000  *  -27.758000  *   12.364000  *
    21       H(    21  C     )   -1.0110000  *  -27.629000  *   10.634000  *
 


          CARTESIAN COORDINATES 

    NO.       ATOM         X         Y         Z

     1         C       -2.5150  -26.8910   11.9560
     2         C       -3.5800  -27.4970   11.1350
     3         O       -3.3170  -28.3770   10.3400
     4         C       -4.9740  -27.0240   11.2940
     5         C       -5.9560  -27.3540   10.3700
     6         C       -7.2510  -26.8940   10.5500
     7         C       -7.5710  -26.1080   11.6410
     8         C       -6.6010  -25.7680   12.5710
     9         C       -5.2990  -26.2230   12.4040
    10         C       -4.2370  -25.8810   13.3760
    11         O       -4.5220  -25.4040   14.4570
    12         C       -2.8240  -26.1300   13.0190
    13        Br       -1.4420  -25.3680   14.0620
    14         H       -5.7120  -27.9680    9.5150
    15         H       -8.0160  -27.1490    9.8320
    16         H       -8.5830  -25.7550   11.7680
    17         H       -6.8550  -25.1540   13.4220
    18         C       -1.0700  -27.1300   11.6020
    19         H       -0.5450  -26.1760   11.5510
    20         H       -0.6080  -27.7580   12.3640
    21         H       -1.0110  -27.6290   10.6340

 General Reference for PM6:
 "Optimization of Parameters for Semiempirical Methods V: Modification of NDDO Approximations
 and Application to 70 Elements", J. J. P. Stewart, J. Mol. Mod., 13, 1173-1213 (2007)
 URL: http://www.springerlink.com/content/ar33482301010477/fulltext.pdf

           Empirical Formula: C11 H7 O2 Br  =    21 atoms



      MOLECULAR POINT GROUP   :   C1  
 
   NUMBER AND TYPES OF BONDS IDENTIFIED
 
         SIGMA BONDS               22
         LONE PAIRS                 7
         NORMAL PI BONDS            3
         AROMATIC RING PI BONDS     3
 
  SCF CRITERION =    0.1000E-02


          HEAT OF FORMATION =     -29.412131 KCALS/MOLE


          INTERNAL COORDINATE DERIVATIVES

   NUMBER  ATOM       BOND         ANGLE      DIHEDRAL

     1       C
     2       C     38.237373
     3       O     -9.678736     3.330678
     4       C    -24.841448   -11.153696     1.260713
     5       C     -5.393868   -11.799781     0.301086
     6       C      9.777857     4.604244    -0.388130
     7       C      3.182806   -14.862479     0.379927
     8       C    -12.977965     4.748583     2.411650
     9       C     -9.423914     9.652630     1.014596
    10       C     14.736393     1.659057    -3.936276
    11       O      0.260537   -10.874348     3.067021
    12       C     12.237233    17.019839    -6.566786
    13      Br      7.163912     8.596292    -4.193581
    14       H     -3.693975    -6.862739     3.614551
    15       H      1.088793    11.144596    -3.850438
    16       H     -4.915504    -9.209508     2.121879
    17       H    -10.981980    -0.037650     2.218867
    18       C     -4.981055    10.248585    -0.207300
    19       H      6.036842     9.064586    -2.275875
    20       H    -27.125340    19.467692    -3.218132
    21       H      6.040919    -5.623912     6.630112


          GRADIENT NORM =  79.52198



 ** GRADIENT IS TOO LARGE TO ALLOW FORCE MATRIX TO BE CALCULATED, (LIMIT=10) **



 EITHER ADD 'LET' OR REDUCE GRADIENT
 USING 'TS' OR OTHER GEOMETRY OPTIMIZER



 TOTAL CPU TIME:             0.38 SECONDS

 == MOPAC DONE ==
