 *******************************************************************************
 ** Site#:  958            For non-commercial use only         Version 9.015L **
 *******************************************************************************
 ** Cite this work as: MOPAC2009, James J. P. Stewart, Stewart Computational  **
 ** Chemistry, Version 9.015L web: HTTP://OpenMOPAC.net                       **
 *******************************************************************************
 **                                                                           **
 **                                MOPAC2009                                  **
 **                                                                           **
 *******************************************************************************

                            PM6 CALCULATION RESULTS


 *******************************************************************************
 *  CALCULATION DONE:                                Tue Sep  6 16:28:04 2011  *
 *  PM6      - The PM6 Hamiltonian to be used
 *
 *
 *
 *                 CHARGE ON SYSTEM =     0
 *
 *
 *
 *  EPS= 78.400
 *  RSOLV=  1.300
 *  LET      - OVERRIDE SOME SAFETY CHECKS
 *  XYZ      - CARTESIAN COORDINATE SYSTEM TO BE USED
 *  T=       - A TIME OF  0.3E+08 SECONDS REQUESTED
 *  DUMP=N   - RESTART FILE WRITTEN EVERY  4320.000 SECONDS
 *  DDMIN=   - MINIMUM TRUST RADIUS  0.000 ANG/RAD
 *  GNORM=   - EXIT WHEN GRADIENT NORM DROPS BELOW .150    
 *  RELSCF   - DEFAULT SCF CRITERION MULTIPLIED BY   0.100    
 *             (DEFAULT SCFCRT= 0.00010)
 *  SYBYL    - OUTPUT SYBYL FILE
 *  MULLIK   - THE MULLIKEN ANALYSIS TO BE PERFORMED
 *******************************************************************************
 PM6 T=31535568 DUMP=4320 XYZ EPS=78.40 RSOLV=1.30 MULLIK SYBYL +
 CHARGE=0 RELSCF=0.1 LET DDMIN=0.0 GNORM=0.15
 SJ000002349-1_T001S001I001C08: Geometry optimization step

   ATOM   CHEMICAL          X               Y              Z
  NUMBER   SYMBOL      (ANGSTROMS)     (ANGSTROMS)    (ANGSTROMS)
 
     1       C          0.0020000  *   -0.004000  *    0.002000  *
     2       C          0.7390000  *   -0.528000  *    1.235000  *
     3       C          0.0800000  *   -0.017000  *    2.494000  *
     4       C         -1.2500000  *    0.198000  *    2.518000  *
     5       C         -1.9100000  *    0.707000  *    3.774000  *
     6       C         -1.0200000  *    0.488000  *    4.972000  *
     7       C          0.2960000  *    0.255000  *    4.800000  *
     8       C          1.1840000  *    0.032000  *    6.001000  *
     9       C          0.6770000  *    0.846000  *    7.192000  *
    10       C         -0.7310000  *    0.323000  *    7.484000  *
    11       C         -1.5820000  *    0.529000  *    6.261000  *
    12       O         -2.7720000  *    0.733000  *    6.388000  *
    13       O          0.8420000  *    0.221000  *    3.574000  *
    14       C         -2.0390000  *   -0.050000  *    1.380000  *
    15       O         -3.2370000  *    0.145000  *    1.429000  *
    16       C         -1.4230000  *   -0.552000  *    0.103000  *
    17       H          0.7150000  *   -1.618000  *    1.233000  *
    18       H          1.7750000  *   -0.191000  *    1.207000  *
    19       H         -2.1110000  *    1.773000  *    3.667000  *
    20       H          1.1810000  *   -1.027000  *    6.261000  *
    21       H          2.2010000  *    0.340000  *    5.760000  *
    22       H         -0.6850000  *   -0.739000  *    7.725000  *
    23       H         -1.1580000  *    0.871000  *    8.324000  *
    24       H         -2.0100000  *   -0.206000  *   -0.748000  *
    25       H         -1.3970000  *   -1.641000  *    0.112000  *
    26       C         -3.2100000  *   -0.025000  *    3.983000  *
    27       C         -4.4040000  *    0.681000  *    4.024000  *
    28       C         -5.6010000  *    0.007000  *    4.216000  *
    29       C         -5.6010000  *   -1.371000  *    4.366000  *
    30       H         -6.5310000  *    0.555000  *    4.249000  *
    31       C         -4.4040000  *   -2.073000  *    4.324000  *
    32       C         -3.2140000  *   -1.399000  *    4.127000  *
    33       H         -4.4040000  *   -3.146000  *    4.441000  *
    34       H         -2.2840000  *   -1.947000  *    4.094000  *
    35       O         -4.4010000  *    2.032000  *    3.877000  *
    36       H         -4.4870000  *    2.328000  *    2.960000  *
    37       O         -6.7720000  *   -2.035000  *    4.554000  *
    38       H         -7.1970000  *   -2.322000  *    3.734000  *
    39       C         -0.0190000  *    1.526000  *    0.010000  *
    40       H          1.0040000  *    1.903000  *    0.003000  *
    41       H         -0.5460000  *    1.887000  *   -0.873000  *
    42       H         -0.5290000  *    1.877000  *    0.907000  *
    43       C          0.6760000  *   -0.515000  *   -1.273000  *
    44       H          1.7000000  *   -0.144000  *   -1.316000  *
    45       H          0.6850000  *   -1.605000  *   -1.267000  *
    46       H          0.1240000  *   -0.161000  *   -2.143000  *
    47       C          1.5830000  *    0.628000  *    8.405000  *
    48       H          2.5980000  *    0.946000  *    8.162000  *
    49       H          1.2120000  *    1.214000  *    9.246000  *
    50       H          1.5870000  *   -0.428000  *    8.671000  *
    51       C          0.6250000  *    2.332000  *    6.831000  *
    52       H         -0.0480000  *    2.478000  *    5.987000  *
    53       H          0.2620000  *    2.901000  *    7.687000  *
    54       H          1.6240000  *    2.676000  *    6.564000  *
 


          CARTESIAN COORDINATES 

    NO.       ATOM         X         Y         Z

     1         C        0.0020   -0.0040    0.0020
     2         C        0.7390   -0.5280    1.2350
     3         C        0.0800   -0.0170    2.4940
     4         C       -1.2500    0.1980    2.5180
     5         C       -1.9100    0.7070    3.7740
     6         C       -1.0200    0.4880    4.9720
     7         C        0.2960    0.2550    4.8000
     8         C        1.1840    0.0320    6.0010
     9         C        0.6770    0.8460    7.1920
    10         C       -0.7310    0.3230    7.4840
    11         C       -1.5820    0.5290    6.2610
    12         O       -2.7720    0.7330    6.3880
    13         O        0.8420    0.2210    3.5740
    14         C       -2.0390   -0.0500    1.3800
    15         O       -3.2370    0.1450    1.4290
    16         C       -1.4230   -0.5520    0.1030
    17         H        0.7150   -1.6180    1.2330
    18         H        1.7750   -0.1910    1.2070
    19         H       -2.1110    1.7730    3.6670
    20         H        1.1810   -1.0270    6.2610
    21         H        2.2010    0.3400    5.7600
    22         H       -0.6850   -0.7390    7.7250
    23         H       -1.1580    0.8710    8.3240
    24         H       -2.0100   -0.2060   -0.7480
    25         H       -1.3970   -1.6410    0.1120
    26         C       -3.2100   -0.0250    3.9830
    27         C       -4.4040    0.6810    4.0240
    28         C       -5.6010    0.0070    4.2160
    29         C       -5.6010   -1.3710    4.3660
    30         H       -6.5310    0.5550    4.2490
    31         C       -4.4040   -2.0730    4.3240
    32         C       -3.2140   -1.3990    4.1270
    33         H       -4.4040   -3.1460    4.4410
    34         H       -2.2840   -1.9470    4.0940
    35         O       -4.4010    2.0320    3.8770
    36         H       -4.4870    2.3280    2.9600
    37         O       -6.7720   -2.0350    4.5540
    38         H       -7.1970   -2.3220    3.7340
    39         C       -0.0190    1.5260    0.0100
    40         H        1.0040    1.9030    0.0030
    41         H       -0.5460    1.8870   -0.8730
    42         H       -0.5290    1.8770    0.9070
    43         C        0.6760   -0.5150   -1.2730
    44         H        1.7000   -0.1440   -1.3160
    45         H        0.6850   -1.6050   -1.2670
    46         H        0.1240   -0.1610   -2.1430
    47         C        1.5830    0.6280    8.4050
    48         H        2.5980    0.9460    8.1620
    49         H        1.2120    1.2140    9.2460
    50         H        1.5870   -0.4280    8.6710
    51         C        0.6250    2.3320    6.8310
    52         H       -0.0480    2.4780    5.9870
    53         H        0.2620    2.9010    7.6870
    54         H        1.6240    2.6760    6.5640

 General Reference for PM6:
 "Optimization of Parameters for Semiempirical Methods V: Modification of NDDO Approximations
 and Application to 70 Elements", J. J. P. Stewart, J. Mol. Mod., 13, 1173-1213 (2007)
 URL: http://www.springerlink.com/content/ar33482301010477/fulltext.pdf

           Empirical Formula: C23 H26 O5  =    54 atoms



      MOLECULAR POINT GROUP   :   C1  


      RHF CALCULATION, NO. OF DOUBLY OCCUPIED LEVELS =   74

      Geometry optimization using EF
  SCF CRITERION =    0.1000E-04

          DIAGONAL MATRIX USED AS START HESSIAN

 CYCLE:     1 TIME:   0.260 TIME LEFT: 16.53W  GRAD.:   194.186 HEAT:-185.5641
 CYCLE:     2 TIME:   0.145 TIME LEFT: 16.53W  GRAD.:   188.799 HEAT:-194.1929
 CYCLE:     3 TIME:   0.144 TIME LEFT: 16.53W  GRAD.:   201.176 HEAT:-198.3647
 CYCLE:     4 TIME:   0.144 TIME LEFT: 16.53W  GRAD.:   248.594 HEAT:-192.8977
 CYCLE:     5 TIME:   0.145 TIME LEFT: 16.53W  GRAD.:   279.674 HEAT:-195.1341
 CYCLE:     6 TIME:   0.145 TIME LEFT: 16.53W  GRAD.:   326.539 HEAT:-188.8559
 CYCLE:     7 TIME:   0.145 TIME LEFT: 16.53W  GRAD.:   194.148 HEAT:-199.3193
 CYCLE:     8 TIME:   0.144 TIME LEFT: 16.53W  GRAD.:   191.063 HEAT:-200.6552
 CYCLE:     9 TIME:   0.145 TIME LEFT: 16.53W  GRAD.:   279.947 HEAT:-193.5105
 CYCLE:    10 TIME:   0.192 TIME LEFT: 16.53W  GRAD.:   214.505 HEAT:-199.9547
 CYCLE:    11 TIME:   0.152 TIME LEFT: 16.53W  GRAD.:   246.415 HEAT:-197.0240
 CYCLE:    12 TIME:   0.143 TIME LEFT: 16.53W  GRAD.:   275.645 HEAT:-194.3817
 CYCLE:    13 TIME:   0.142 TIME LEFT: 16.53W  GRAD.:   295.426 HEAT:-197.0073
 CYCLE:    14 TIME:   0.145 TIME LEFT: 16.53W  GRAD.:   322.842 HEAT:-191.4151
 CYCLE:    15 TIME:   0.154 TIME LEFT: 16.53W  GRAD.:   209.454 HEAT:-201.2184
 CYCLE:    16 TIME:   0.141 TIME LEFT: 16.53W  GRAD.:   297.529 HEAT:-195.3824
 CYCLE:    17 TIME:   0.145 TIME LEFT: 16.53W  GRAD.:   281.045 HEAT:-194.8850
 CYCLE:    18 TIME:   0.154 TIME LEFT: 16.53W  GRAD.:   213.505 HEAT:-202.6396
 CYCLE:    19 TIME:   0.146 TIME LEFT: 16.53W  GRAD.:   290.100 HEAT:-194.5641
 CYCLE:    20 TIME:   0.145 TIME LEFT: 16.53W  GRAD.:   326.051 HEAT:-193.9072
 CYCLE:    21 TIME:   0.158 TIME LEFT: 16.53W  GRAD.:   211.474 HEAT:-203.3750
 CYCLE:    22 TIME:   0.148 TIME LEFT: 16.53W  GRAD.:   268.970 HEAT:-198.1253
 CYCLE:    23 TIME:   0.141 TIME LEFT: 16.53W  GRAD.:   261.297 HEAT:-198.0942
 CYCLE:    24 TIME:   0.148 TIME LEFT: 16.53W  GRAD.:   233.777 HEAT:-201.6999
 CYCLE:    25 TIME:   0.151 TIME LEFT: 16.53W  GRAD.:   285.372 HEAT:-198.7983
 CYCLE:    26 TIME:   0.144 TIME LEFT: 16.53W  GRAD.:   205.904 HEAT:-203.3191
 CYCLE:    27 TIME:   0.146 TIME LEFT: 16.53W  GRAD.:   245.388 HEAT:-200.1729
 CYCLE:    28 TIME:   0.168 TIME LEFT: 16.53W  GRAD.:   256.156 HEAT:-200.9572
 CYCLE:    29 TIME:   0.168 TIME LEFT: 16.53W  GRAD.:   246.045 HEAT:-200.2795
 CYCLE:    30 TIME:   0.185 TIME LEFT: 16.53W  GRAD.:   255.986 HEAT:-200.4961
 CYCLE:    31 TIME:   0.144 TIME LEFT: 16.53W  GRAD.:   226.167 HEAT:-201.7851
 CYCLE:    32 TIME:   0.146 TIME LEFT: 16.53W  GRAD.:   292.384 HEAT:-200.4350
 CYCLE:    33 TIME:   0.146 TIME LEFT: 16.53W  GRAD.:   166.737 HEAT:-207.0384
 CYCLE:    34 TIME:   0.143 TIME LEFT: 16.53W  GRAD.:   202.213 HEAT:-204.5009
 CYCLE:    35 TIME:   0.143 TIME LEFT: 16.53W  GRAD.:   202.715 HEAT:-204.8157
 CYCLE:    36 TIME:   0.149 TIME LEFT: 16.53W  GRAD.:   166.620 HEAT:-207.4447
 CYCLE:    37 TIME:   0.144 TIME LEFT: 16.53W  GRAD.:   197.961 HEAT:-204.3818
 CYCLE:    38 TIME:   0.144 TIME LEFT: 16.53W  GRAD.:   138.271 HEAT:-209.7649
 CYCLE:    39 TIME:   0.142 TIME LEFT: 16.53W  GRAD.:   231.543 HEAT:-203.2540
 CYCLE:    40 TIME:   0.143 TIME LEFT: 16.53W  GRAD.:   151.331 HEAT:-208.4598
 CYCLE:    41 TIME:   0.144 TIME LEFT: 16.53W  GRAD.:   206.444 HEAT:-205.8571
 CYCLE:    42 TIME:   0.141 TIME LEFT: 16.53W  GRAD.:   170.841 HEAT:-206.0949
 CYCLE:    43 TIME:   0.142 TIME LEFT: 16.53W  GRAD.:   201.553 HEAT:-208.2740
 CYCLE:    44 TIME:   0.150 TIME LEFT: 16.53W  GRAD.:   145.896 HEAT:-209.3201
 CYCLE:    45 TIME:   0.150 TIME LEFT: 16.53W  GRAD.:   209.691 HEAT:-206.1200
 CYCLE:    46 TIME:   0.144 TIME LEFT: 16.53W  GRAD.:   113.569 HEAT:-212.4007
 CYCLE:    47 TIME:   0.143 TIME LEFT: 16.53W  GRAD.:   214.074 HEAT:-205.4866
 CYCLE:    48 TIME:   0.150 TIME LEFT: 16.53W  GRAD.:    90.757 HEAT:-214.2568
 CYCLE:    49 TIME:   0.140 TIME LEFT: 16.53W  GRAD.:   184.312 HEAT:-206.7124
 CYCLE:    50 TIME:   0.154 TIME LEFT: 16.53W  GRAD.:    92.026 HEAT:-214.6171
 CYCLE:    51 TIME:   0.141 TIME LEFT: 16.53W  GRAD.:   159.952 HEAT:-208.6700
 CYCLE:    52 TIME:   0.145 TIME LEFT: 16.53W  GRAD.:    72.589 HEAT:-216.0650
 CYCLE:    53 TIME:   0.141 TIME LEFT: 16.53W  GRAD.:   169.917 HEAT:-207.1508
 CYCLE:    54 TIME:   0.143 TIME LEFT: 16.53W  GRAD.:    47.600 HEAT:-217.5387
 CYCLE:    55 TIME:   0.141 TIME LEFT: 16.53W  GRAD.:   207.880 HEAT:-202.6466
 CYCLE:    56 TIME:   0.141 TIME LEFT: 16.53W  GRAD.:    51.209 HEAT:-217.4272
 CYCLE:    57 TIME:   0.142 TIME LEFT: 16.53W  GRAD.:   184.132 HEAT:-203.9734
 CYCLE:    58 TIME:   0.144 TIME LEFT: 16.53W  GRAD.:    69.579 HEAT:-217.2307
 CYCLE:    59 TIME:   0.145 TIME LEFT: 16.53W  GRAD.:   242.635 HEAT:-194.0516
 CYCLE:    60 TIME:   0.145 TIME LEFT: 16.53W  GRAD.:    44.976 HEAT:-218.3619
 CYCLE:    61 TIME:   0.144 TIME LEFT: 16.53W  GRAD.:   208.250 HEAT:-202.2680
 CYCLE:    62 TIME:   0.144 TIME LEFT: 16.53W  GRAD.:    46.081 HEAT:-218.8139
 CYCLE:    63 TIME:   0.139 TIME LEFT: 16.53W  GRAD.:   213.236 HEAT:-201.5438
 CYCLE:    64 TIME:   0.153 TIME LEFT: 16.53W  GRAD.:    50.233 HEAT:-218.8693
 CYCLE:    65 TIME:   0.142 TIME LEFT: 16.53W  GRAD.:   205.126 HEAT:-201.0317
 CYCLE:    66 TIME:   0.141 TIME LEFT: 16.53W  GRAD.:    36.801 HEAT:-219.7015
 CYCLE:    67 TIME:   0.141 TIME LEFT: 16.53W  GRAD.:   153.253 HEAT:-209.9270
 CYCLE:    68 TIME:   0.141 TIME LEFT: 16.53W  GRAD.:    25.700 HEAT:-220.2671
 CYCLE:    69 TIME:   0.139 TIME LEFT: 16.53W  GRAD.:   107.614 HEAT:-215.8158
 CYCLE:    70 TIME:   0.147 TIME LEFT: 16.53W  GRAD.:    25.238 HEAT:-220.6233
 CYCLE:    71 TIME:   0.139 TIME LEFT: 16.53W  GRAD.:   105.579 HEAT:-216.6181
 CYCLE:    72 TIME:   0.147 TIME LEFT: 16.53W  GRAD.:    26.845 HEAT:-220.8870
 CYCLE:    73 TIME:   0.140 TIME LEFT: 16.53W  GRAD.:   114.838 HEAT:-215.6828
 CYCLE:    74 TIME:   0.140 TIME LEFT: 16.53W  GRAD.:    16.894 HEAT:-221.3233
 CYCLE:    75 TIME:   0.140 TIME LEFT: 16.53W  GRAD.:    68.737 HEAT:-219.6605
 CYCLE:    76 TIME:   0.136 TIME LEFT: 16.53W  GRAD.:    20.455 HEAT:-221.6423
 CYCLE:    77 TIME:   0.135 TIME LEFT: 16.53W  GRAD.:    75.674 HEAT:-219.5117
 CYCLE:    78 TIME:   0.132 TIME LEFT: 16.53W  GRAD.:    18.861 HEAT:-222.0723
 CYCLE:    79 TIME:   0.132 TIME LEFT: 16.53W  GRAD.:    85.224 HEAT:-219.5480
 CYCLE:    80 TIME:   0.132 TIME LEFT: 16.53W  GRAD.:    14.028 HEAT:-222.6187
 CYCLE:    81 TIME:   0.135 TIME LEFT: 16.53W  GRAD.:    59.268 HEAT:-221.6506
 CYCLE:    82 TIME:   0.135 TIME LEFT: 16.53W  GRAD.:    16.778 HEAT:-222.9269
 CYCLE:    83 TIME:   0.135 TIME LEFT: 16.53W  GRAD.:    56.495 HEAT:-221.8639
 CYCLE:    84 TIME:   0.139 TIME LEFT: 16.53W  GRAD.:    24.294 HEAT:-223.2713
 CYCLE:    85 TIME:   0.139 TIME LEFT: 16.53W  GRAD.:    89.151 HEAT:-220.3054
 CYCLE:    86 TIME:   0.140 TIME LEFT: 16.53W  GRAD.:    19.407 HEAT:-223.8373
 CYCLE:    87 TIME:   0.142 TIME LEFT: 16.53W  GRAD.:    57.470 HEAT:-222.7821
 CYCLE:    88 TIME:   0.132 TIME LEFT: 16.53W  GRAD.:    26.298 HEAT:-224.3599
 CYCLE:    89 TIME:   0.142 TIME LEFT: 16.53W  GRAD.:    80.519 HEAT:-221.8330
 CYCLE:    90 TIME:   0.141 TIME LEFT: 16.53W  GRAD.:    23.354 HEAT:-225.1009
 CYCLE:    91 TIME:   0.141 TIME LEFT: 16.53W  GRAD.:    63.486 HEAT:-223.8090
 CYCLE:    92 TIME:   0.141 TIME LEFT: 16.53W  GRAD.:    27.243 HEAT:-225.7649
 CYCLE:    93 TIME:   0.141 TIME LEFT: 16.53W  GRAD.:    92.711 HEAT:-222.4372
 CYCLE:    94 TIME:   0.135 TIME LEFT: 16.53W  GRAD.:    16.761 HEAT:-226.4964
 CYCLE:    95 TIME:   0.132 TIME LEFT: 16.53W  GRAD.:    63.998 HEAT:-225.4316
 CYCLE:    96 TIME:   0.132 TIME LEFT: 16.53W  GRAD.:    20.015 HEAT:-226.9055
 CYCLE:    97 TIME:   0.137 TIME LEFT: 16.53W  GRAD.:    50.209 HEAT:-225.7621
 CYCLE:    98 TIME:   0.131 TIME LEFT: 16.53W  GRAD.:    21.853 HEAT:-227.3150
 CYCLE:    99 TIME:   0.141 TIME LEFT: 16.53W  GRAD.:    80.281 HEAT:-224.2300
 CYCLE:   100 TIME:   0.140 TIME LEFT: 16.53W  GRAD.:    16.214 HEAT:-227.5024
 CYCLE:   101 TIME:   0.136 TIME LEFT: 16.53W  GRAD.:    70.011 HEAT:-225.2311
 CYCLE:   102 TIME:   0.135 TIME LEFT: 16.53W  GRAD.:    15.434 HEAT:-227.6582
 CYCLE:   103 TIME:   0.135 TIME LEFT: 16.53W  GRAD.:    47.602 HEAT:-226.4884
 CYCLE:   104 TIME:   0.131 TIME LEFT: 16.53W  GRAD.:    14.438 HEAT:-227.7601
 CYCLE:   105 TIME:   0.136 TIME LEFT: 16.53W  GRAD.:    59.112 HEAT:-226.2382
 CYCLE:   106 TIME:   0.131 TIME LEFT: 16.53W  GRAD.:     8.145 HEAT:-227.8683
 CYCLE:   107 TIME:   0.131 TIME LEFT: 16.53W  GRAD.:    30.696 HEAT:-227.4492
 CYCLE:   108 TIME:   0.127 TIME LEFT: 16.53W  GRAD.:     8.224 HEAT:-227.9296
 CYCLE:   109 TIME:   0.127 TIME LEFT: 16.53W  GRAD.:    31.143 HEAT:-227.5502
 CYCLE:   110 TIME:   0.128 TIME LEFT: 16.53W  GRAD.:     3.553 HEAT:-228.0361
 CYCLE:   111 TIME:   0.127 TIME LEFT: 16.53W  GRAD.:    13.024 HEAT:-228.0137
 CYCLE:   112 TIME:   0.128 TIME LEFT: 16.53W  GRAD.:     5.069 HEAT:-228.1141
 CYCLE:   113 TIME:   0.130 TIME LEFT: 16.53W  GRAD.:    11.525 HEAT:-228.1458
 CYCLE:   114 TIME:   0.132 TIME LEFT: 16.53W  GRAD.:    10.874 HEAT:-228.2143
 CYCLE:   115 TIME:   0.131 TIME LEFT: 16.53W  GRAD.:    23.023 HEAT:-228.0924
 CYCLE:   116 TIME:   0.131 TIME LEFT: 16.53W  GRAD.:     8.477 HEAT:-228.3706
 CYCLE:   117 TIME:   0.131 TIME LEFT: 16.53W  GRAD.:    15.247 HEAT:-228.2564
 CYCLE:   118 TIME:   0.131 TIME LEFT: 16.53W  GRAD.:     5.014 HEAT:-228.4279
 CYCLE:   119 TIME:   0.131 TIME LEFT: 16.53W  GRAD.:    14.368 HEAT:-228.3125
 CYCLE:   120 TIME:   0.127 TIME LEFT: 16.53W  GRAD.:     9.044 HEAT:-228.3775
 CYCLE:   121 TIME:   0.131 TIME LEFT: 16.53W  GRAD.:    15.207 HEAT:-228.2493
 CYCLE:   122 TIME:   0.131 TIME LEFT: 16.53W  GRAD.:     4.907 HEAT:-228.3934
 CYCLE:   123 TIME:   0.131 TIME LEFT: 16.53W  GRAD.:    11.129 HEAT:-228.4178
 CYCLE:   124 TIME:   0.127 TIME LEFT: 16.53W  GRAD.:     7.993 HEAT:-228.4422
 CYCLE:   125 TIME:   0.132 TIME LEFT: 16.53W  GRAD.:    28.049 HEAT:-228.2872
 CYCLE:   126 TIME:   0.131 TIME LEFT: 16.53W  GRAD.:     6.763 HEAT:-228.6321
 CYCLE:   127 TIME:   0.133 TIME LEFT: 16.53W  GRAD.:     5.641 HEAT:-228.6866
 CYCLE:   128 TIME:   0.132 TIME LEFT: 16.53W  GRAD.:    10.649 HEAT:-228.7723
 CYCLE:   129 TIME:   0.132 TIME LEFT: 16.53W  GRAD.:    10.127 HEAT:-228.8519
 CYCLE:   130 TIME:   0.131 TIME LEFT: 16.53W  GRAD.:     5.506 HEAT:-228.9775
 CYCLE:   131 TIME:   0.131 TIME LEFT: 16.53W  GRAD.:     8.443 HEAT:-229.0722
 CYCLE:   132 TIME:   0.132 TIME LEFT: 16.53W  GRAD.:    12.727 HEAT:-229.3146
 CYCLE:   133 TIME:   0.131 TIME LEFT: 16.53W  GRAD.:     7.846 HEAT:-229.4126
 CYCLE:   134 TIME:   0.133 TIME LEFT: 16.53W  GRAD.:     8.366 HEAT:-229.6194
 CYCLE:   135 TIME:   0.132 TIME LEFT: 16.53W  GRAD.:    12.445 HEAT:-229.6861
 CYCLE:   136 TIME:   0.132 TIME LEFT: 16.53W  GRAD.:     6.820 HEAT:-229.7419
 CYCLE:   137 TIME:   0.132 TIME LEFT: 16.53W  GRAD.:     6.953 HEAT:-229.7993
 CYCLE:   138 TIME:   0.127 TIME LEFT: 16.53W  GRAD.:     4.669 HEAT:-229.8283
 CYCLE:   139 TIME:   0.133 TIME LEFT: 16.53W  GRAD.:     4.641 HEAT:-229.9380
 CYCLE:   140 TIME:   0.128 TIME LEFT: 16.53W  GRAD.:     4.464 HEAT:-229.9423
 CYCLE:   141 TIME:   0.127 TIME LEFT: 16.53W  GRAD.:     3.698 HEAT:-229.9986
 CYCLE:   142 TIME:   0.132 TIME LEFT: 16.53W  GRAD.:     3.221 HEAT:-230.0393
 CYCLE:   143 TIME:   0.134 TIME LEFT: 16.53W  GRAD.:     3.667 HEAT:-230.0577
 CYCLE:   144 TIME:   0.132 TIME LEFT: 16.53W  GRAD.:     3.679 HEAT:-230.0746
 CYCLE:   145 TIME:   0.132 TIME LEFT: 16.53W  GRAD.:     2.989 HEAT:-230.0517
 CYCLE:   146 TIME:   0.133 TIME LEFT: 16.53W  GRAD.:     3.582 HEAT:-230.0630
 CYCLE:   147 TIME:   0.127 TIME LEFT: 16.53W  GRAD.:     2.510 HEAT:-230.0561
 CYCLE:   148 TIME:   0.132 TIME LEFT: 16.53W  GRAD.:     2.287 HEAT:-230.0604
 CYCLE:   149 TIME:   0.133 TIME LEFT: 16.53W  GRAD.:     2.142 HEAT:-230.0764
 CYCLE:   150 TIME:   0.133 TIME LEFT: 16.53W  GRAD.:     1.620 HEAT:-230.1098
 CYCLE:   151 TIME:   0.132 TIME LEFT: 16.53W  GRAD.:     1.643 HEAT:-230.1184
 CYCLE:   152 TIME:   0.132 TIME LEFT: 16.53W  GRAD.:     1.220 HEAT:-230.1483
 CYCLE:   153 TIME:   0.137 TIME LEFT: 16.53W  GRAD.:     1.642 HEAT:-230.1576
 CYCLE:   154 TIME:   0.132 TIME LEFT: 16.53W  GRAD.:     1.306 HEAT:-230.1696
 CYCLE:   155 TIME:   0.132 TIME LEFT: 16.53W  GRAD.:     1.144 HEAT:-230.1229
 CYCLE:   156 TIME:   0.132 TIME LEFT: 16.53W  GRAD.:     1.124 HEAT:-230.1294
 CYCLE:   157 TIME:   0.131 TIME LEFT: 16.53W  GRAD.:     1.592 HEAT:-230.1171
 CYCLE:   158 TIME:   0.133 TIME LEFT: 16.53W  GRAD.:     1.608 HEAT:-230.1276
 CYCLE:   159 TIME:   0.131 TIME LEFT: 16.53W  GRAD.:     1.417 HEAT:-230.2170
 CYCLE:   160 TIME:   0.132 TIME LEFT: 16.53W  GRAD.:     1.420 HEAT:-230.1995
 CYCLE:   161 TIME:   0.132 TIME LEFT: 16.53W  GRAD.:     1.731 HEAT:-230.2412
 CYCLE:   162 TIME:   0.132 TIME LEFT: 16.53W  GRAD.:     1.331 HEAT:-230.1734
 CYCLE:   163 TIME:   0.132 TIME LEFT: 16.53W  GRAD.:     0.957 HEAT:-230.1364
 CYCLE:   164 TIME:   0.136 TIME LEFT: 16.53W  GRAD.:     0.816 HEAT:-230.1455
 CYCLE:   165 TIME:   0.141 TIME LEFT: 16.53W  GRAD.:     1.273 HEAT:-230.3291
 CYCLE:   166 TIME:   0.130 TIME LEFT: 16.53W  GRAD.:     1.082 HEAT:-230.3489
 CYCLE:   167 TIME:   0.142 TIME LEFT: 16.53W  GRAD.:     1.063 HEAT:-230.3262
 CYCLE:   168 TIME:   0.140 TIME LEFT: 16.53W  GRAD.:     0.903 HEAT:-230.3411
 CYCLE:   169 TIME:   0.140 TIME LEFT: 16.53W  GRAD.:     1.401 HEAT:-230.4190
 CYCLE:   170 TIME:   0.140 TIME LEFT: 16.53W  GRAD.:     1.381 HEAT:-230.4061
 CYCLE:   171 TIME:   0.140 TIME LEFT: 16.53W  GRAD.:     1.471 HEAT:-230.4078
 CYCLE:   172 TIME:   0.136 TIME LEFT: 16.53W  GRAD.:     1.638 HEAT:-230.4060
 CYCLE:   173 TIME:   0.133 TIME LEFT: 16.53W  GRAD.:     1.610 HEAT:-230.4277
 CYCLE:   174 TIME:   0.132 TIME LEFT: 16.53W  GRAD.:     2.503 HEAT:-230.5354
 CYCLE:   175 TIME:   0.132 TIME LEFT: 16.53W  GRAD.:     2.537 HEAT:-230.5713
 CYCLE:   176 TIME:   0.132 TIME LEFT: 16.53W  GRAD.:     2.431 HEAT:-230.6168
 CYCLE:   177 TIME:   0.132 TIME LEFT: 16.53W  GRAD.:     2.837 HEAT:-230.7780
 CYCLE:   178 TIME:   0.131 TIME LEFT: 16.53W  GRAD.:     2.424 HEAT:-230.8253
 CYCLE:   179 TIME:   0.132 TIME LEFT: 16.53W  GRAD.:     2.681 HEAT:-230.7805
 CYCLE:   180 TIME:   0.131 TIME LEFT: 16.53W  GRAD.:     2.599 HEAT:-230.8098
 CYCLE:   181 TIME:   0.135 TIME LEFT: 16.53W  GRAD.:     2.455 HEAT:-230.8492
 CYCLE:   182 TIME:   0.140 TIME LEFT: 16.53W  GRAD.:     3.493 HEAT:-230.9192
 CYCLE:   183 TIME:   0.135 TIME LEFT: 16.53W  GRAD.:     8.580 HEAT:-230.9294
 CYCLE:   184 TIME:   0.131 TIME LEFT: 16.53W  GRAD.:    11.394 HEAT:-230.9040
 CYCLE:   185 TIME:   0.131 TIME LEFT: 16.53W  GRAD.:    12.977 HEAT:-230.9522
 CYCLE:   186 TIME:   0.130 TIME LEFT: 16.53W  GRAD.:    10.876 HEAT:-231.0947
 CYCLE:   187 TIME:   0.131 TIME LEFT: 16.53W  GRAD.:     9.143 HEAT:-231.0532
 CYCLE:   188 TIME:   0.131 TIME LEFT: 16.53W  GRAD.:     5.561 HEAT:-231.1325
 CYCLE:   189 TIME:   0.125 TIME LEFT: 16.53W  GRAD.:     3.079 HEAT:-231.1942
 CYCLE:   190 TIME:   0.130 TIME LEFT: 16.53W  GRAD.:     3.552 HEAT:-231.2493
 CYCLE:   191 TIME:   0.135 TIME LEFT: 16.53W  GRAD.:     6.234 HEAT:-231.2756
 CYCLE:   192 TIME:   0.131 TIME LEFT: 16.53W  GRAD.:     3.784 HEAT:-231.3022
 CYCLE:   193 TIME:   0.126 TIME LEFT: 16.53W  GRAD.:     3.168 HEAT:-231.3119
 CYCLE:   194 TIME:   0.131 TIME LEFT: 16.53W  GRAD.:     3.410 HEAT:-231.3327
 CYCLE:   195 TIME:   0.130 TIME LEFT: 16.53W  GRAD.:     3.828 HEAT:-231.4703
 CYCLE:   196 TIME:   0.131 TIME LEFT: 16.53W  GRAD.:     2.698 HEAT:-231.5181
 CYCLE:   197 TIME:   0.131 TIME LEFT: 16.53W  GRAD.:     2.453 HEAT:-231.5620
 CYCLE:   198 TIME:   0.131 TIME LEFT: 16.53W  GRAD.:     2.879 HEAT:-231.6012
 CYCLE:   199 TIME:   0.130 TIME LEFT: 16.53W  GRAD.:     2.474 HEAT:-231.6273
 CYCLE:   200 TIME:   0.130 TIME LEFT: 16.53W  GRAD.:     1.790 HEAT:-231.6350
 CYCLE:   201 TIME:   0.131 TIME LEFT: 16.53W  GRAD.:     1.709 HEAT:-231.6479
 CYCLE:   202 TIME:   0.130 TIME LEFT: 16.53W  GRAD.:     2.038 HEAT:-231.6283
 CYCLE:   203 TIME:   0.131 TIME LEFT: 16.53W  GRAD.:     1.730 HEAT:-231.5964
 CYCLE:   204 TIME:   0.130 TIME LEFT: 16.53W  GRAD.:     1.463 HEAT:-231.6376
 CYCLE:   205 TIME:   0.131 TIME LEFT: 16.53W  GRAD.:     1.477 HEAT:-231.6417
 CYCLE:   206 TIME:   0.130 TIME LEFT: 16.53W  GRAD.:     1.949 HEAT:-231.6404
 CYCLE:   207 TIME:   0.130 TIME LEFT: 16.53W  GRAD.:     2.249 HEAT:-231.6214
 CYCLE:   208 TIME:   0.132 TIME LEFT: 16.53W  GRAD.:     2.078 HEAT:-231.6619
 CYCLE:   209 TIME:   0.132 TIME LEFT: 16.53W  GRAD.:     1.988 HEAT:-231.6711
 CYCLE:   210 TIME:   0.131 TIME LEFT: 16.53W  GRAD.:     1.587 HEAT:-231.6790
 CYCLE:   211 TIME:   0.131 TIME LEFT: 16.53W  GRAD.:     1.926 HEAT:-231.7303
 CYCLE:   212 TIME:   0.133 TIME LEFT: 16.53W  GRAD.:     1.491 HEAT:-231.7468
 CYCLE:   213 TIME:   0.131 TIME LEFT: 16.53W  GRAD.:     1.206 HEAT:-231.7571
 CYCLE:   214 TIME:   0.130 TIME LEFT: 16.53W  GRAD.:     1.204 HEAT:-231.7777
 CYCLE:   215 TIME:   0.132 TIME LEFT: 16.53W  GRAD.:     0.939 HEAT:-231.7721
 CYCLE:   216 TIME:   0.131 TIME LEFT: 16.53W  GRAD.:     0.826 HEAT:-231.7835
 CYCLE:   217 TIME:   0.130 TIME LEFT: 16.53W  GRAD.:     0.709 HEAT:-231.7801
 CYCLE:   218 TIME:   0.133 TIME LEFT: 16.53W  GRAD.:     0.645 HEAT:-231.7821
 CYCLE:   219 TIME:   0.131 TIME LEFT: 16.53W  GRAD.:     0.622 HEAT:-231.7796
 CYCLE:   220 TIME:   0.130 TIME LEFT: 16.53W  GRAD.:     0.569 HEAT:-231.7899
 CYCLE:   221 TIME:   0.131 TIME LEFT: 16.53W  GRAD.:     0.487 HEAT:-231.7901
 CYCLE:   222 TIME:   0.131 TIME LEFT: 16.53W  GRAD.:     0.456 HEAT:-231.7969
 CYCLE:   223 TIME:   0.130 TIME LEFT: 16.53W  GRAD.:     0.449 HEAT:-231.7992
 CYCLE:   224 TIME:   0.131 TIME LEFT: 16.53W  GRAD.:     0.419 HEAT:-231.7985
 CYCLE:   225 TIME:   0.131 TIME LEFT: 16.53W  GRAD.:     0.381 HEAT:-231.7991
 CYCLE:   226 TIME:   0.130 TIME LEFT: 16.53W  GRAD.:     0.326 HEAT:-231.7983
 CYCLE:   227 TIME:   0.130 TIME LEFT: 16.53W  GRAD.:     0.274 HEAT:-231.7972
 CYCLE:   228 TIME:   0.131 TIME LEFT: 16.53W  GRAD.:     0.249 HEAT:-231.7991
 CYCLE:   229 TIME:   0.126 TIME LEFT: 16.53W  GRAD.:     0.196 HEAT:-231.7962
 CYCLE:   230 TIME:   0.126 TIME LEFT: 16.53W  GRAD.:     0.172 HEAT:-231.7991
 CYCLE:   231 TIME:   0.126 TIME LEFT: 16.53W  GRAD.:     0.189 HEAT:-231.8020
 CYCLE:   232 TIME:   0.126 TIME LEFT: 16.53W  GRAD.:     0.220 HEAT:-231.8024
 CYCLE:   233 TIME:   0.130 TIME LEFT: 16.53W  GRAD.:     0.218 HEAT:-231.8042
 CYCLE:   234 TIME:   0.127 TIME LEFT: 16.53W  GRAD.:     0.230 HEAT:-231.8043
 CYCLE:   235 TIME:   0.126 TIME LEFT: 16.53W  GRAD.:     0.248 HEAT:-231.8035
 CYCLE:   236 TIME:   0.125 TIME LEFT: 16.53W  GRAD.:     0.252 HEAT:-231.8023
 CYCLE:   237 TIME:   0.126 TIME LEFT: 16.53W  GRAD.:     0.207 HEAT:-231.8015
 CYCLE:   238 TIME:   0.126 TIME LEFT: 16.53W  GRAD.:     0.179 HEAT:-231.8030
 CYCLE:   239 TIME:   0.125 TIME LEFT: 16.53W  GRAD.:     0.162 HEAT:-231.8023
 CYCLE:   240 TIME:   0.126 TIME LEFT: 16.53W  GRAD.:     0.168 HEAT:-231.8050
 CYCLE:   241 TIME:   0.125 TIME LEFT: 16.53W  GRAD.:     0.207 HEAT:-231.7932
 CYCLE:   242 TIME:   0.127 TIME LEFT: 16.53W  GRAD.:     0.215 HEAT:-231.7927
 CYCLE:   243 TIME:   0.125 TIME LEFT: 16.53W  GRAD.:     0.194 HEAT:-231.7936
 CYCLE:   244 TIME:   0.125 TIME LEFT: 16.53W  GRAD.:     0.166 HEAT:-231.7903
 CYCLE:   245 TIME:   0.125 TIME LEFT: 16.53W  GRAD.:     0.164 HEAT:-231.7896
 CYCLE:   246 TIME:   0.126 TIME LEFT: 16.53W  GRAD.:     0.184 HEAT:-231.7880
 CYCLE:   247 TIME:   0.125 TIME LEFT: 16.53W  GRAD.:     0.211 HEAT:-231.7872
 CYCLE:   248 TIME:   0.126 TIME LEFT: 16.53W  GRAD.:     0.217 HEAT:-231.7858
 CYCLE:   249 TIME:   0.126 TIME LEFT: 16.53W  GRAD.:     0.397 HEAT:-231.8318
 CYCLE:   250 TIME:   0.128 TIME LEFT: 16.53W  GRAD.:     0.346 HEAT:-231.7867
 CYCLE:   251 TIME:   0.126 TIME LEFT: 16.53W  GRAD.:     0.239 HEAT:-231.7868
 CYCLE:   252 TIME:   0.125 TIME LEFT: 16.53W  GRAD.:     0.163 HEAT:-231.7863
 CYCLE:   253 TIME:   0.126 TIME LEFT: 16.53W  GRAD.:     0.198 HEAT:-231.7856
 CYCLE:   254 TIME:   0.131 TIME LEFT: 16.53W  GRAD.:     0.168 HEAT:-231.7906
 CYCLE:   255 TIME:   0.125 TIME LEFT: 16.53W  GRAD.:     0.107 HEAT:-231.7855

     RMS GRADIENT =  0.10661  IS LESS THAN CUTOFF =  0.15000



 -------------------------------------------------------------------------------
 PM6 T=31535568 DUMP=4320 XYZ EPS=78.40 RSOLV=1.30 MULLIK SYBYL +
 CHARGE=0 RELSCF=0.1 LET DDMIN=0.0 GNORM=0.15
 SJ000002349-1_T001S001I001C08: Geometry optimization step



     GEOMETRY OPTIMISED USING EIGENVECTOR FOLLOWING (EF).     
     SCF FIELD WAS ACHIEVED                                   


                               PM6     CALCULATION
                                                       MOPAC2009 (Version: 9.015L)
                                                       Tue Sep  6 16:28:39 2011




          FINAL HEAT OF FORMATION =       -231.78546 KCAL =    -969.79038 KJ
          VAN DER WAALS AREA      =        376.31 SQUARE ANGSTROMS


          TOTAL ENERGY            =      -4629.84291 EV
          ELECTRONIC ENERGY       =      -8586.05639 EV  POINT GROUP:     C1  
          CORE-CORE REPULSION     =       3956.21348 EV
          DIELECTRIC ENERGY       =         -1.40120 EV
          COSMO AREA              =        376.31 SQUARE ANGSTROMS
          COSMO VOLUME            =        459.70 CUBIC ANGSTROMS

          IONIZATION POTENTIAL    =          9.170097 EV
          HOMO LUMO ENERGIES (EV) =         -9.170 -0.958
          NO. OF FILLED LEVELS    =         74
          MOLECULAR WEIGHT        =        382.455

          MOLECULAR DIMENSIONS (Angstroms)

            Atom       Atom       Distance
            H    54    H    38    11.04340
            H    49    H    46    10.87052
            H    36    H    17     4.95124


          SCF CALCULATIONS        =        257
          COMPUTATION TIME        =         34.879 SECONDS




   ATOM   CHEMICAL          X               Y              Z
  NUMBER   SYMBOL      (ANGSTROMS)     (ANGSTROMS)    (ANGSTROMS)
 
     1       C          0.0845484  *    0.158331  *    0.054660  *
     2       C          0.4922695  *   -0.665644  *    1.312861  *
     3       C         -0.2538832  *   -0.217865  *    2.511051  *
     4       C         -1.4632390  *    0.393156  *    2.531540  *
     5       C         -2.1757206  *    0.707072  *    3.826912  *
     6       C         -1.2061236  *    0.636443  *    4.981350  *
     7       C         -0.0025900  *    0.029833  *    4.871178  *
     8       C          0.9939400  *   -0.182962  *    5.945857  *
     9       C          0.7961594  *    0.834836  *    7.109328  *
    10       C         -0.7127724  *    0.927576  *    7.451257  *
    11       C         -1.5898391  *    1.239887  *    6.268208  *
    12       O         -2.5742056  *    1.957897  *    6.388597  *
    13       O          0.4729419  *   -0.488214  *    3.664998  *
    14       C         -2.0933691  *    0.763767  *    1.263109  *
    15       O         -3.1128771  *    1.457718  *    1.217639  *
    16       C         -1.4615392  *    0.265889  *   -0.003951  *
    17       H          0.2975109  *   -1.752728  *    1.140917  *
    18       H          1.5942741  *   -0.613094  *    1.467711  *
    19       H         -2.5788849  *    1.760194  *    3.769405  *
    20       H          0.9071967  *   -1.228731  *    6.329831  *
    21       H          2.0362144  *   -0.126392  *    5.557544  *
    22       H         -1.0586264  *   -0.030814  *    7.903456  *
    23       H         -0.8685471  *    1.677972  *    8.256304  *
    24       H         -1.7606604  *    0.902200  *   -0.865691  *
    25       H         -1.9009467  *   -0.732571  *   -0.243603  *
    26       C         -3.3382310  *   -0.243449  *    4.033386  *
    27       C         -4.6494619  *    0.141969  *    3.672561  *
    28       C         -5.7651992  *   -0.670466  *    3.915631  *
    29       C         -5.5328043  *   -1.915687  *    4.509709  *
    30       H         -6.7634639  *   -0.339482  *    3.641684  *
    31       C         -4.2430910  *   -2.358044  *    4.848522  *
    32       C         -3.1631204  *   -1.510227  *    4.604045  *
    33       H         -4.1013767  *   -3.339570  *    5.294247  *
    34       H         -2.1558041  *   -1.844029  *    4.870744  *
    35       O         -4.9249308  *    1.336675  *    3.072068  *
    36       H         -4.0789191  *    1.762377  *    2.651876  *
    37       O         -6.5487599  *   -2.786774  *    4.789849  *
    38       H         -7.4501125  *   -2.424312  *    4.529309  *
    39       C          0.7018327  *    1.560443  *    0.132487  *
    40       H          1.7980586  *    1.518264  *    0.159916  *
    41       H          0.4313976  *    2.167714  *   -0.740665  *
    42       H          0.3782922  *    2.111364  *    1.022254  *
    43       C          0.5885349  *   -0.569580  *   -1.196606  *
    44       H          1.6798103  *   -0.684464  *   -1.185291  *
    45       H          0.1595089  *   -1.574090  *   -1.296291  *
    46       H          0.3357357  *   -0.019294  *   -2.111793  *
    47       C          1.5647076  *    0.335919  *    8.338495  *
    48       H          2.6372004  *    0.234110  *    8.130660  *
    49       H          1.4685578  *    1.031538  *    9.181974  *
    50       H          1.2077202  *   -0.641383  *    8.684987  *
    51       C          1.3210032  *    2.212809  *    6.685065  *
    52       H          0.8203377  *    2.592019  *    5.787589  *
    53       H          1.1764343  *    2.958969  *    7.476437  *
    54       H          2.3959568  *    2.186122  *    6.467193  *

           Empirical Formula: C23 H26 O5  =    54 atoms



      MOLECULAR POINT GROUP   :   C1  


                  EIGENVALUES  
 -32.27854 -31.94628 -31.81986 -31.12896 -30.96085 -30.57123 -30.22277 -29.85482
 -28.84380 -27.87628 -26.60658 -26.41621 -26.07934 -25.56077 -25.17751 -24.51258
 -24.45716 -24.06976 -23.40145 -22.44269 -22.01324 -21.69824 -21.20962 -20.38864
 -19.76261 -19.33787 -18.45538 -17.85465 -17.58270 -17.26887 -17.17289 -16.92524
 -16.66997 -16.19191 -16.12552 -15.88886 -15.72110 -15.55455 -15.42554 -15.40514
 -15.27485 -15.06545 -14.87518 -14.81849 -14.77229 -14.48826 -14.41585 -14.34967
 -14.24183 -14.08788 -13.81901 -13.59292 -13.45565 -13.38855 -13.20500 -13.10994
 -13.01395 -12.97094 -12.93311 -12.82838 -12.38518 -12.33079 -12.26781 -12.09912
 -12.02339 -12.00415 -11.90531 -11.80672 -10.99437 -10.84299 -10.62903  -9.93613
  -9.79614  -9.17010  -0.95839  -0.37518  -0.11091   0.02845   0.51144   0.93484
   1.09510   1.90641   2.04175   2.24693   2.33367   2.55209   2.79728   2.86445
   3.12724   3.15736   3.28080   3.39713   3.46009   3.51518   3.61733   3.66097
   3.75710   3.84328   3.88182   3.93352   3.97609   4.07796   4.14552   4.19558
   4.24743   4.31382   4.42881   4.55523   4.60240   4.70712   4.78668   5.09350
   5.11147   5.12340   5.20178   5.25146   5.27066   5.31901   5.61062   5.68318
   5.72746   5.74222   5.76967   5.77853   5.78359   5.79319   5.80900   5.82387
   5.87201   5.89996   6.03634   6.04816   6.09895   6.15951   6.74814   6.76069
   6.85308   6.86561


              NET ATOMIC CHARGES AND DIPOLE CONTRIBUTIONS

  ATOM NO.   TYPE          CHARGE      No. of ELECS.   s-Pop       p-Pop       
    1          C           0.329048        3.6710     1.06717     2.60379
    2          C          -0.460826        4.4608     1.11107     3.34976
    3          C           0.467605        3.5324     1.10725     2.42515
    4          C          -0.502731        4.5027     1.11657     3.38616
    5          C           0.142344        3.8577     1.05193     2.80573
    6          C          -0.478585        4.4786     1.11805     3.36054
    7          C           0.441620        3.5584     1.10752     2.45086
    8          C          -0.454806        4.4548     1.11023     3.34457
    9          C           0.328255        3.6717     1.06697     2.60478
   10          C          -0.545792        4.5458     1.12400     3.42179
   11          C           0.671365        3.3286     1.09036     2.23828
   12          O          -0.624172        6.6242     1.85189     4.77228
   13          O          -0.362977        6.3630     1.83587     4.52711
   14          C           0.672904        3.3271     1.09281     2.23429
   15          O          -0.641375        6.6414     1.85148     4.78989
   16          C          -0.538952        4.5390     1.12267     3.41629
   17          H           0.215512        0.7845     0.78449
   18          H           0.211662        0.7883     0.78834
   19          H           0.141207        0.8588     0.85879
   20          H           0.213682        0.7863     0.78632
   21          H           0.208806        0.7912     0.79119
   22          H           0.211724        0.7883     0.78828
   23          H           0.205859        0.7941     0.79414
   24          H           0.208521        0.7915     0.79148
   25          H           0.218201        0.7818     0.78180
   26          C          -0.319359        4.3194     1.10245     3.21691
   27          C           0.439852        3.5601     1.07604     2.48411
   28          C          -0.540683        4.5407     1.11030     3.43038
   29          C           0.436514        3.5635     1.07475     2.48874
   30          H           0.212265        0.7877     0.78773
   31          C          -0.434727        4.4347     1.10483     3.32990
   32          C           0.064525        3.9355     1.10419     2.83128
   33          H           0.195789        0.8042     0.80421
   34          H           0.153234        0.8468     0.84677
   35          O          -0.552569        6.5526     1.81616     4.73641
   36          H           0.382566        0.6174     0.61743
   37          O          -0.516720        6.5167     1.80618     4.71054
   38          H           0.374266        0.6257     0.62573
   39          C          -0.561994        4.5620     1.09667     3.46532
   40          H           0.173804        0.8262     0.82620
   41          H           0.174406        0.8256     0.82559
   42          H           0.166539        0.8335     0.83346
   43          C          -0.555507        4.5555     1.09579     3.45972
   44          H           0.172965        0.8270     0.82704
   45          H           0.171216        0.8288     0.82878
   46          H           0.173566        0.8264     0.82643
   47          C          -0.555628        4.5556     1.09585     3.45978
   48          H           0.172061        0.8279     0.82794
   49          H           0.173839        0.8262     0.82616
   50          H           0.170218        0.8298     0.82978
   51          C          -0.560492        4.5605     1.09655     3.46394
   52          H           0.166133        0.8339     0.83387
   53          H           0.173405        0.8266     0.82660
   54          H           0.172415        0.8276     0.82758
 DIPOLE           X         Y         Z       TOTAL
 POINT-CHG.    13.507    -5.466    -1.514    14.650
 HYBRID        -0.572     0.127    -0.267     0.644
 SUM           12.935    -5.340    -1.781    14.107


          CARTESIAN COORDINATES 

    NO.       ATOM               X         Y         Z

     1         C                  0.0845    0.1583    0.0547
     2         C                  0.4923   -0.6656    1.3129
     3         C                 -0.2539   -0.2179    2.5111
     4         C                 -1.4632    0.3932    2.5315
     5         C                 -2.1757    0.7071    3.8269
     6         C                 -1.2061    0.6364    4.9813
     7         C                 -0.0026    0.0298    4.8712
     8         C                  0.9939   -0.1830    5.9459
     9         C                  0.7962    0.8348    7.1093
    10         C                 -0.7128    0.9276    7.4513
    11         C                 -1.5898    1.2399    6.2682
    12         O                 -2.5742    1.9579    6.3886
    13         O                  0.4729   -0.4882    3.6650
    14         C                 -2.0934    0.7638    1.2631
    15         O                 -3.1129    1.4577    1.2176
    16         C                 -1.4615    0.2659   -0.0040
    17         H                  0.2975   -1.7527    1.1409
    18         H                  1.5943   -0.6131    1.4677
    19         H                 -2.5789    1.7602    3.7694
    20         H                  0.9072   -1.2287    6.3298
    21         H                  2.0362   -0.1264    5.5575
    22         H                 -1.0586   -0.0308    7.9035
    23         H                 -0.8685    1.6780    8.2563
    24         H                 -1.7607    0.9022   -0.8657
    25         H                 -1.9009   -0.7326   -0.2436
    26         C                 -3.3382   -0.2434    4.0334
    27         C                 -4.6495    0.1420    3.6726
    28         C                 -5.7652   -0.6705    3.9156
    29         C                 -5.5328   -1.9157    4.5097
    30         H                 -6.7635   -0.3395    3.6417
    31         C                 -4.2431   -2.3580    4.8485
    32         C                 -3.1631   -1.5102    4.6040
    33         H                 -4.1014   -3.3396    5.2942
    34         H                 -2.1558   -1.8440    4.8707
    35         O                 -4.9249    1.3367    3.0721
    36         H                 -4.0789    1.7624    2.6519
    37         O                 -6.5488   -2.7868    4.7898
    38         H                 -7.4501   -2.4243    4.5293
    39         C                  0.7018    1.5604    0.1325
    40         H                  1.7981    1.5183    0.1599
    41         H                  0.4314    2.1677   -0.7407
    42         H                  0.3783    2.1114    1.0223
    43         C                  0.5885   -0.5696   -1.1966
    44         H                  1.6798   -0.6845   -1.1853
    45         H                  0.1595   -1.5741   -1.2963
    46         H                  0.3357   -0.0193   -2.1118
    47         C                  1.5647    0.3359    8.3385
    48         H                  2.6372    0.2341    8.1307
    49         H                  1.4686    1.0315    9.1820
    50         H                  1.2077   -0.6414    8.6850
    51         C                  1.3210    2.2128    6.6851
    52         H                  0.8203    2.5920    5.7876
    53         H                  1.1764    2.9590    7.4764
    54         H                  2.3960    2.1861    6.4672


          ATOMIC ORBITAL ELECTRON POPULATIONS

   1.06717   0.84906   0.88701   0.86772   1.11107   1.16453   1.16462   1.02060
   1.10725   0.85985   0.78077   0.78453   1.11657   1.07895   1.24243   1.06478
   1.05193   0.90868   1.03644   0.86061   1.11805   1.06211   1.21375   1.08468
   1.10752   0.89771   0.78424   0.76892   1.11023   1.12213   1.16657   1.05588
   1.06697   0.85792   0.87680   0.87005   1.12400   1.08375   1.22272   1.11532
   1.09036   0.73684   0.65636   0.84508   1.85189   1.42433   1.46933   1.87862
   1.83587   1.56643   1.69567   1.26501   1.09281   0.72612   0.64065   0.86752
   1.85148   1.40920   1.49045   1.89025   1.12267   1.09899   1.21266   1.10464
   0.78449   0.78834   0.85879   0.78632   0.79119   0.78828   0.79414   0.79148
   0.78180   1.10245   0.99683   1.04205   1.17803   1.07604   0.91296   0.76142
   0.80973   1.11030   1.11604   1.06200   1.25235   1.07475   0.82603   0.83109
   0.83162   0.78773   1.10483   0.98878   1.13116   1.20996   1.10419   1.03452
   0.92611   0.87065   0.80421   0.84677   1.81616   1.56121   1.44413   1.73107
   0.61743   1.80618   1.33094   1.55932   1.82028   0.62573   1.09667   1.18096
   1.08722   1.19714   0.82620   0.82559   0.83346   1.09579   1.18560   1.16659
   1.10754   0.82704   0.82878   0.82643   1.09585   1.16480   1.18358   1.11141
   0.82794   0.82616   0.82978   1.09655   1.18485   1.09298   1.18612   0.83387
   0.82660   0.82758

           MULLIKEN POPULATION ANALYSIS



        MULLIKEN POPULATIONS AND CHARGES

      NO.  ATOM   POPULATION      CHARGE
        1    C     3.636380      0.363620
        2    C     4.580428     -0.580428
        3    C     3.507601      0.492399
        4    C     4.546325     -0.546325
        5    C     3.850843      0.149157
        6    C     4.520807     -0.520807
        7    C     3.535562      0.464438
        8    C     4.573070     -0.573070
        9    C     3.637208      0.362792
       10    C     4.671743     -0.671743
       11    C     3.281493      0.718507
       12    O     6.650182     -0.650182
       13    O     6.402294     -0.402294
       14    C     3.281820      0.718180
       15    O     6.670819     -0.670819
       16    C     4.665132     -0.665132
       17    H     0.730777      0.269223
       18    H     0.732897      0.267103
       19    H     0.819236      0.180764
       20    H     0.732785      0.267215
       21    H     0.736480      0.263520
       22    H     0.735654      0.264346
       23    H     0.739383      0.260617
       24    H     0.736366      0.263634
       25    H     0.728324      0.271676
       26    C     4.345409     -0.345409
       27    C     3.531544      0.468456
       28    C     4.619024     -0.619024
       29    C     3.539327      0.460673
       30    H     0.723967      0.276033
       31    C     4.503808     -0.503808
       32    C     3.960371      0.039629
       33    H     0.744480      0.255520
       34    H     0.799143      0.200857
       35    O     6.599260     -0.599260
       36    H     0.583744      0.416256
       37    O     6.566288     -0.566288
       38    H     0.593208      0.406792
       39    C     4.707478     -0.707478
       40    H     0.778419      0.221581
       41    H     0.777721      0.222279
       42    H     0.786737      0.213263
       43    C     4.701833     -0.701833
       44    H     0.779429      0.220571
       45    H     0.781301      0.218699
       46    H     0.778739      0.221261
       47    C     4.701846     -0.701846
       48    H     0.780516      0.219484
       49    H     0.778406      0.221594
       50    H     0.782517      0.217483
       51    C     4.705577     -0.705577
       52    H     0.787265      0.212735
       53    H     0.778929      0.221071
       54    H     0.780107      0.219893



 TOTAL CPU TIME:            34.91 SECONDS

 == MOPAC DONE ==
 *******************************************************************************
 ** Site#:  958            For non-commercial use only         Version 9.015L **
 *******************************************************************************
 ** Cite this work as: MOPAC2009, James J. P. Stewart, Stewart Computational  **
 ** Chemistry, Version 9.015L web: HTTP://OpenMOPAC.net                       **
 *******************************************************************************
 **                                                                           **
 **                                MOPAC2009                                  **
 **                                                                           **
 *******************************************************************************

                            PM6 CALCULATION RESULTS


 *******************************************************************************
 *  CALCULATION DONE:                                Tue Sep  6 16:28:39 2011  *
 *  PM6      - The PM6 Hamiltonian to be used
 *  GEO-OK   - OVERRIDE INTERATOMIC DISTANCE CHECK
 *
 *
 *
 *                 CHARGE ON SYSTEM =     0
 *
 *
 *
 *  EPS= 78.400
 *  RSOLV=  1.300
 *  OLDGEO   - PREVIOUS GEOMETRY TO BE USED
 *  T=       - A TIME OF 172800.0 SECONDS REQUESTED
 *  DUMP=N   - RESTART FILE WRITTEN EVERY  4320.000 SECONDS
 *  RELSCF   - DEFAULT SCF CRITERION MULTIPLIED BY   0.100    
 *             (DEFAULT SCFCRT= 0.00010)
 *  THERMO   - THERMODYNAMIC QUANTITIES TO BE CALCULATED
 *******************************************************************************
 PM6 DUMP=4320 RELSCF=0.1 THERMO EPS=78.40 RSOLV=1.30 +
 OLDGEO GEO-OK CHARGE=0
 SJ000002349-1_T001S001I001C08: Free energy calculation

   ATOM   CHEMICAL          X               Y              Z
  NUMBER   SYMBOL      (ANGSTROMS)     (ANGSTROMS)    (ANGSTROMS)
 
     1       C          0.0845484  *    0.158331  *    0.054660  *
     2       C          0.4922695  *   -0.665644  *    1.312861  *
     3       C         -0.2538832  *   -0.217865  *    2.511051  *
     4       C         -1.4632390  *    0.393156  *    2.531540  *
     5       C         -2.1757206  *    0.707072  *    3.826912  *
     6       C         -1.2061236  *    0.636443  *    4.981350  *
     7       C         -0.0025900  *    0.029833  *    4.871178  *
     8       C          0.9939400  *   -0.182962  *    5.945857  *
     9       C          0.7961594  *    0.834836  *    7.109328  *
    10       C         -0.7127724  *    0.927576  *    7.451257  *
    11       C         -1.5898391  *    1.239887  *    6.268208  *
    12       O         -2.5742056  *    1.957897  *    6.388597  *
    13       O          0.4729419  *   -0.488214  *    3.664998  *
    14       C         -2.0933691  *    0.763767  *    1.263109  *
    15       O         -3.1128771  *    1.457718  *    1.217639  *
    16       C         -1.4615392  *    0.265889  *   -0.003951  *
    17       H          0.2975109  *   -1.752728  *    1.140917  *
    18       H          1.5942741  *   -0.613094  *    1.467711  *
    19       H         -2.5788849  *    1.760194  *    3.769405  *
    20       H          0.9071967  *   -1.228731  *    6.329831  *
    21       H          2.0362144  *   -0.126392  *    5.557544  *
    22       H         -1.0586264  *   -0.030814  *    7.903456  *
    23       H         -0.8685471  *    1.677972  *    8.256304  *
    24       H         -1.7606604  *    0.902200  *   -0.865691  *
    25       H         -1.9009467  *   -0.732571  *   -0.243603  *
    26       C         -3.3382310  *   -0.243449  *    4.033386  *
    27       C         -4.6494619  *    0.141969  *    3.672561  *
    28       C         -5.7651992  *   -0.670466  *    3.915631  *
    29       C         -5.5328043  *   -1.915687  *    4.509709  *
    30       H         -6.7634639  *   -0.339482  *    3.641684  *
    31       C         -4.2430910  *   -2.358044  *    4.848522  *
    32       C         -3.1631204  *   -1.510227  *    4.604045  *
    33       H         -4.1013767  *   -3.339570  *    5.294247  *
    34       H         -2.1558041  *   -1.844029  *    4.870744  *
    35       O         -4.9249308  *    1.336675  *    3.072068  *
    36       H         -4.0789191  *    1.762377  *    2.651876  *
    37       O         -6.5487599  *   -2.786774  *    4.789849  *
    38       H         -7.4501125  *   -2.424312  *    4.529309  *
    39       C          0.7018327  *    1.560443  *    0.132487  *
    40       H          1.7980586  *    1.518264  *    0.159916  *
    41       H          0.4313976  *    2.167714  *   -0.740665  *
    42       H          0.3782922  *    2.111364  *    1.022254  *
    43       C          0.5885349  *   -0.569580  *   -1.196606  *
    44       H          1.6798103  *   -0.684464  *   -1.185291  *
    45       H          0.1595089  *   -1.574090  *   -1.296291  *
    46       H          0.3357357  *   -0.019294  *   -2.111793  *
    47       C          1.5647076  *    0.335919  *    8.338495  *
    48       H          2.6372004  *    0.234110  *    8.130660  *
    49       H          1.4685578  *    1.031538  *    9.181974  *
    50       H          1.2077202  *   -0.641383  *    8.684987  *
    51       C          1.3210032  *    2.212809  *    6.685065  *
    52       H          0.8203377  *    2.592019  *    5.787589  *
    53       H          1.1764343  *    2.958969  *    7.476437  *
    54       H          2.3959568  *    2.186122  *    6.467193  *
 


          CARTESIAN COORDINATES 

    NO.       ATOM         X         Y         Z

     1         C        0.0845    0.1583    0.0547
     2         C        0.4923   -0.6656    1.3129
     3         C       -0.2539   -0.2179    2.5111
     4         C       -1.4632    0.3932    2.5315
     5         C       -2.1757    0.7071    3.8269
     6         C       -1.2061    0.6364    4.9813
     7         C       -0.0026    0.0298    4.8712
     8         C        0.9939   -0.1830    5.9459
     9         C        0.7962    0.8348    7.1093
    10         C       -0.7128    0.9276    7.4513
    11         C       -1.5898    1.2399    6.2682
    12         O       -2.5742    1.9579    6.3886
    13         O        0.4729   -0.4882    3.6650
    14         C       -2.0934    0.7638    1.2631
    15         O       -3.1129    1.4577    1.2176
    16         C       -1.4615    0.2659   -0.0040
    17         H        0.2975   -1.7527    1.1409
    18         H        1.5943   -0.6131    1.4677
    19         H       -2.5789    1.7602    3.7694
    20         H        0.9072   -1.2287    6.3298
    21         H        2.0362   -0.1264    5.5575
    22         H       -1.0586   -0.0308    7.9035
    23         H       -0.8685    1.6780    8.2563
    24         H       -1.7607    0.9022   -0.8657
    25         H       -1.9009   -0.7326   -0.2436
    26         C       -3.3382   -0.2434    4.0334
    27         C       -4.6495    0.1420    3.6726
    28         C       -5.7652   -0.6705    3.9156
    29         C       -5.5328   -1.9157    4.5097
    30         H       -6.7635   -0.3395    3.6417
    31         C       -4.2431   -2.3580    4.8485
    32         C       -3.1631   -1.5102    4.6040
    33         H       -4.1014   -3.3396    5.2942
    34         H       -2.1558   -1.8440    4.8707
    35         O       -4.9249    1.3367    3.0721
    36         H       -4.0789    1.7624    2.6519
    37         O       -6.5488   -2.7868    4.7898
    38         H       -7.4501   -2.4243    4.5293
    39         C        0.7018    1.5604    0.1325
    40         H        1.7981    1.5183    0.1599
    41         H        0.4314    2.1677   -0.7407
    42         H        0.3783    2.1114    1.0223
    43         C        0.5885   -0.5696   -1.1966
    44         H        1.6798   -0.6845   -1.1853
    45         H        0.1595   -1.5741   -1.2963
    46         H        0.3357   -0.0193   -2.1118
    47         C        1.5647    0.3359    8.3385
    48         H        2.6372    0.2341    8.1307
    49         H        1.4686    1.0315    9.1820
    50         H        1.2077   -0.6414    8.6850
    51         C        1.3210    2.2128    6.6851
    52         H        0.8203    2.5920    5.7876
    53         H        1.1764    2.9590    7.4764
    54         H        2.3960    2.1861    6.4672

 General Reference for PM6:
 "Optimization of Parameters for Semiempirical Methods V: Modification of NDDO Approximations
 and Application to 70 Elements", J. J. P. Stewart, J. Mol. Mod., 13, 1173-1213 (2007)
 URL: http://www.springerlink.com/content/ar33482301010477/fulltext.pdf

           Empirical Formula: C23 H26 O5  =    54 atoms



      MOLECULAR POINT GROUP   :   C1  


      RHF CALCULATION, NO. OF DOUBLY OCCUPIED LEVELS =   74

  SCF CRITERION =    0.1000E-04


          HEAT OF FORMATION =    -231.785417 KCALS/MOLE


          INTERNAL COORDINATE DERIVATIVES

   NUMBER  ATOM       BOND         ANGLE      DIHEDRAL

     1       C
     2       C     -0.016097
     3       C     -0.014939    -0.010807
     4       C     -0.007643     0.094988     0.011294
     5       C     -0.094648    -0.084891    -0.016019
     6       C     -0.023899     0.050768    -0.041736
     7       C     -0.074011    -0.001021    -0.005905
     8       C      0.020413     0.035771    -0.099454
     9       C      0.070063     0.024056     0.006229
    10       C     -0.012754    -0.003198    -0.002807
    11       C      0.019139     0.062912    -0.003232
    12       O     -0.084697     0.012224    -0.058136
    13       O      0.054393    -0.138785     0.063025
    14       C     -0.063037     0.069911     0.071669
    15       O     -0.058665     0.068547     0.011992
    16       C      0.102448    -0.193382     0.013940
    17       H      0.152617     0.124050    -0.034691
    18       H     -0.043159     0.082598    -0.016880
    19       H      0.033257    -0.007597    -0.037989
    20       H      0.028164    -0.042474     0.007753
    21       H      0.012993     0.022225     0.008048
    22       H      0.025328    -0.030345     0.013658
    23       H     -0.007175    -0.010490     0.002525
    24       H      0.001544    -0.023895    -0.002389
    25       H     -0.004818     0.032019    -0.008797
    26       C      0.000993    -0.018879     0.017018
    27       C      0.003119    -0.000744    -0.004216
    28       C     -0.026098    -0.091326    -0.055411
    29       C      0.049002     0.028631     0.129415
    30       H     -0.042616    -0.021175    -0.050553
    31       C     -0.042942     0.002201     0.025948
    32       C      0.014343    -0.058776     0.019454
    33       H      0.112559    -0.120537     0.048405
    34       H     -0.060992     0.019460     0.004718
    35       O      0.006064     0.028966     0.026512
    36       H      0.029374    -0.009619    -0.004078
    37       O      0.003360     0.138583    -0.012205
    38       H      0.000765    -0.044927     0.014411
    39       C     -0.104576     0.307728    -0.022318
    40       H      0.082432    -0.344301    -0.018496
    41       H     -0.005830     0.019193    -0.015247
    42       H     -0.000386    -0.003445    -0.021544
    43       C      0.006724    -0.018821     0.018921
    44       H     -0.010217     0.016867     0.011174
    45       H     -0.021009     0.037056     0.023187
    46       H      0.012183    -0.027547     0.002858
    47       C     -0.010172    -0.002329    -0.023506
    48       H      0.022838    -0.008531     0.001304
    49       H      0.010313     0.006019     0.007714
    50       H      0.009961     0.006481     0.000081
    51       C     -0.005240     0.013945     0.008978
    52       H      0.000190    -0.003397    -0.015093
    53       H     -0.046506     0.005124    -0.012107
    54       H     -0.004045    -0.003612     0.025922


          GRADIENT NORM =   0.75443


          TIME FOR SCF CALCULATION =    0.24

          TIME FOR DERIVATIVES     =    0.08

          MOLECULAR WEIGHT =  382.46



          ROTATIONAL CONSTANTS IN CM(-1)

          A =    0.00601074   B =    0.00582347   C =    0.00356949



           PRINCIPAL MOMENTS OF INERTIA IN UNITS OF 10**(-40)*GRAM-CM**2

          A =     4657.1261   B =     4806.8854   C =     7842.2270


          ORIENTATION OF MOLECULE IN FORCE CALCULATION

    NO.       ATOM         X         Y         Z

     1          C      -2.5717   -3.2210   -0.5553
     2          C      -1.0134   -3.2210   -0.5553
     3          C      -0.4780   -1.8403   -0.5553
     4          C      -1.1009   -0.7292   -0.0931
     5          C      -0.4074    0.6129   -0.0481
     6          C       0.8157    0.5935   -0.9320
     7          C       1.3624   -0.5613   -1.3749
     8          C       2.6034   -0.7175   -2.1679
     9          C       2.9529    0.5936   -2.9343
    10          C       2.7852    1.8010   -1.9770
    11          C       1.4353    1.8731   -1.3143
    12          O       0.8953    2.9518   -1.1054
    13          O       0.7869   -1.8099   -1.1316
    14          C      -2.4859   -0.8321    0.3700
    15          O      -3.1564    0.1645    0.6536
    16          C      -3.0804   -2.2041    0.4995
    17          H      -0.6284   -3.7668    0.3409
    18          H      -0.6278   -3.8146   -1.4155
    19          H      -1.1162    1.3973   -0.4446
    20          H       3.4437   -1.0025   -1.4887
    21          H       2.5327   -1.5720   -2.8786
    22          H       3.5666    1.7665   -1.1827
    23          H       2.9976    2.7448   -2.5243
    24          H      -4.1909   -2.1532    0.4661
    25          H      -2.8609   -2.5836    1.5268
    26          C      -0.0423    0.9704    1.3789
    27          C      -0.8805    1.8160    2.1408
    28          C      -0.5466    2.2370    3.4352
    29          C       0.6524    1.7581    3.9744
    30          H      -1.2040    2.9010    3.9901
    31          C       1.4973    0.8840    3.2703
    32          C       1.1341    0.5040    1.9785
    33          H       2.4132    0.5206    3.7297
    34          H       1.7896   -0.1714    1.4203
    35          O      -2.0691    2.2922    1.6674
    36          H      -2.4122    1.7414    0.8596
    37          O       1.0733    2.1045    5.2283
    38          H       0.4355    2.7304    5.6898
    39          C      -3.0887   -2.8318   -1.9460
    40          H      -2.7575   -3.5426   -2.7137
    41          H      -4.1856   -2.8210   -1.9786
    42          H      -2.7463   -1.8389   -2.2571
    43          C      -3.0652   -4.6239   -0.1842
    44          H      -2.7098   -5.3790   -0.8968
    45          H      -2.7268   -4.9356    0.8115
    46          H      -4.1613   -4.6780   -0.1832
    47          C       4.4103    0.5180   -3.4042
    48          H       4.5769   -0.3397   -4.0679
    49          H       4.6984    1.4158   -3.9659
    50          H       5.1134    0.4220   -2.5681
    51          C       2.0190    0.7509   -4.1415
    52          H       0.9629    0.7752   -3.8520
    53          H       2.2257    1.6777   -4.6914
    54          H       2.1385   -0.0741   -4.8549


    FIRST DERIVATIVES WILL BE USED IN THE CALCULATION OF SECOND DERIVATIVES

          ESTIMATED TIME TO COMPLETE CALCULATION =      106.26 SECONDS

    FOR POINT-GROUP C1   THERE ARE   1 UNIQUE SYMMETRY FUNCTIONS.

 STEP:   1 TIME =     0.24 SECS, INTEGRAL =      0.24 TIME LEFT: 172799.44
 STEP:   2 TIME =     0.24 SECS, INTEGRAL =      0.47 TIME LEFT: 172799.20
 STEP:   3 TIME =     0.23 SECS, INTEGRAL =      0.70 TIME LEFT: 172798.97
 STEP:   4 TIME =     0.23 SECS, INTEGRAL =      0.93 TIME LEFT: 172798.74
 STEP:   5 TIME =     0.24 SECS, INTEGRAL =      1.17 TIME LEFT: 172798.50
 STEP:   6 TIME =     0.27 SECS, INTEGRAL =      1.44 TIME LEFT: 172798.23
 STEP:   7 TIME =     0.23 SECS, INTEGRAL =      1.67 TIME LEFT: 172798.00
 STEP:   8 TIME =     0.24 SECS, INTEGRAL =      1.91 TIME LEFT: 172797.76
 STEP:   9 TIME =     0.23 SECS, INTEGRAL =      2.15 TIME LEFT: 172797.52
 STEP:  10 TIME =     0.24 SECS, INTEGRAL =      2.39 TIME LEFT: 172797.28
 STEP:  11 TIME =     0.23 SECS, INTEGRAL =      2.62 TIME LEFT: 172797.05
 STEP:  12 TIME =     0.23 SECS, INTEGRAL =      2.85 TIME LEFT: 172796.82
 STEP:  13 TIME =     0.23 SECS, INTEGRAL =      3.08 TIME LEFT: 172796.59
 STEP:  14 TIME =     0.24 SECS, INTEGRAL =      3.32 TIME LEFT: 172796.35
 STEP:  15 TIME =     0.24 SECS, INTEGRAL =      3.56 TIME LEFT: 172796.11
 STEP:  16 TIME =     0.23 SECS, INTEGRAL =      3.79 TIME LEFT: 172795.88
 STEP:  17 TIME =     0.24 SECS, INTEGRAL =      4.03 TIME LEFT: 172795.64
 STEP:  18 TIME =     0.23 SECS, INTEGRAL =      4.27 TIME LEFT: 172795.41
 STEP:  19 TIME =     0.24 SECS, INTEGRAL =      4.50 TIME LEFT: 172795.17
 STEP:  20 TIME =     0.23 SECS, INTEGRAL =      4.73 TIME LEFT: 172794.94
 STEP:  21 TIME =     0.24 SECS, INTEGRAL =      4.97 TIME LEFT: 172794.70
 STEP:  22 TIME =     0.24 SECS, INTEGRAL =      5.21 TIME LEFT: 172794.46
 STEP:  23 TIME =     0.23 SECS, INTEGRAL =      5.44 TIME LEFT: 172794.24
 STEP:  24 TIME =     0.23 SECS, INTEGRAL =      5.66 TIME LEFT: 172794.01
 STEP:  25 TIME =     0.23 SECS, INTEGRAL =      5.89 TIME LEFT: 172793.78
 STEP:  26 TIME =     0.23 SECS, INTEGRAL =      6.12 TIME LEFT: 172793.55
 STEP:  27 TIME =     0.23 SECS, INTEGRAL =      6.35 TIME LEFT: 172793.33
 STEP:  28 TIME =     0.23 SECS, INTEGRAL =      6.57 TIME LEFT: 172793.10
 STEP:  29 TIME =     0.23 SECS, INTEGRAL =      6.80 TIME LEFT: 172792.87
 STEP:  30 TIME =     0.23 SECS, INTEGRAL =      7.03 TIME LEFT: 172792.64
 STEP:  31 TIME =     0.23 SECS, INTEGRAL =      7.26 TIME LEFT: 172792.41
 STEP:  32 TIME =     0.24 SECS, INTEGRAL =      7.50 TIME LEFT: 172792.17
 STEP:  33 TIME =     0.23 SECS, INTEGRAL =      7.74 TIME LEFT: 172791.94
 STEP:  34 TIME =     0.23 SECS, INTEGRAL =      7.96 TIME LEFT: 172791.71
 STEP:  35 TIME =     0.23 SECS, INTEGRAL =      8.19 TIME LEFT: 172791.48
 STEP:  36 TIME =     0.23 SECS, INTEGRAL =      8.42 TIME LEFT: 172791.26
 STEP:  37 TIME =     0.23 SECS, INTEGRAL =      8.65 TIME LEFT: 172791.02
 STEP:  38 TIME =     0.23 SECS, INTEGRAL =      8.88 TIME LEFT: 172790.79
 STEP:  39 TIME =     0.23 SECS, INTEGRAL =      9.11 TIME LEFT: 172790.56
 STEP:  40 TIME =     0.24 SECS, INTEGRAL =      9.35 TIME LEFT: 172790.32
 STEP:  41 TIME =     0.23 SECS, INTEGRAL =      9.58 TIME LEFT: 172790.09
 STEP:  42 TIME =     0.24 SECS, INTEGRAL =      9.82 TIME LEFT: 172789.85
 STEP:  43 TIME =     0.23 SECS, INTEGRAL =     10.04 TIME LEFT: 172789.63
 STEP:  44 TIME =     0.23 SECS, INTEGRAL =     10.27 TIME LEFT: 172789.40
 STEP:  45 TIME =     0.23 SECS, INTEGRAL =     10.50 TIME LEFT: 172789.17
 STEP:  46 TIME =     0.23 SECS, INTEGRAL =     10.73 TIME LEFT: 172788.95
 STEP:  47 TIME =     0.23 SECS, INTEGRAL =     10.95 TIME LEFT: 172788.72
 STEP:  48 TIME =     0.23 SECS, INTEGRAL =     11.18 TIME LEFT: 172788.49
 STEP:  49 TIME =     0.22 SECS, INTEGRAL =     11.40 TIME LEFT: 172788.27
 STEP:  50 TIME =     0.22 SECS, INTEGRAL =     11.62 TIME LEFT: 172788.05
 STEP:  51 TIME =     0.22 SECS, INTEGRAL =     11.84 TIME LEFT: 172787.84
 STEP:  52 TIME =     0.22 SECS, INTEGRAL =     12.05 TIME LEFT: 172787.62
 STEP:  53 TIME =     0.22 SECS, INTEGRAL =     12.27 TIME LEFT: 172787.40
 STEP:  54 TIME =     0.22 SECS, INTEGRAL =     12.49 TIME LEFT: 172787.18
 STEP:  55 TIME =     0.22 SECS, INTEGRAL =     12.71 TIME LEFT: 172786.96
 STEP:  56 TIME =     0.22 SECS, INTEGRAL =     12.93 TIME LEFT: 172786.75
 STEP:  57 TIME =     0.22 SECS, INTEGRAL =     13.14 TIME LEFT: 172786.53
 STEP:  58 TIME =     0.22 SECS, INTEGRAL =     13.36 TIME LEFT: 172786.31
 STEP:  59 TIME =     0.22 SECS, INTEGRAL =     13.58 TIME LEFT: 172786.09
 STEP:  60 TIME =     0.22 SECS, INTEGRAL =     13.80 TIME LEFT: 172785.87
 STEP:  61 TIME =     0.22 SECS, INTEGRAL =     14.02 TIME LEFT: 172785.65
 STEP:  62 TIME =     0.22 SECS, INTEGRAL =     14.24 TIME LEFT: 172785.43
 STEP:  63 TIME =     0.22 SECS, INTEGRAL =     14.46 TIME LEFT: 172785.22
 STEP:  64 TIME =     0.22 SECS, INTEGRAL =     14.67 TIME LEFT: 172785.00
 STEP:  65 TIME =     0.22 SECS, INTEGRAL =     14.89 TIME LEFT: 172784.78
 STEP:  66 TIME =     0.22 SECS, INTEGRAL =     15.11 TIME LEFT: 172784.56
 STEP:  67 TIME =     0.22 SECS, INTEGRAL =     15.33 TIME LEFT: 172784.34
 STEP:  68 TIME =     0.22 SECS, INTEGRAL =     15.55 TIME LEFT: 172784.12
 STEP:  69 TIME =     0.22 SECS, INTEGRAL =     15.77 TIME LEFT: 172783.91
 STEP:  70 TIME =     0.22 SECS, INTEGRAL =     15.98 TIME LEFT: 172783.69
 STEP:  71 TIME =     0.22 SECS, INTEGRAL =     16.20 TIME LEFT: 172783.47
 STEP:  72 TIME =     0.22 SECS, INTEGRAL =     16.43 TIME LEFT: 172783.25
 STEP:  73 TIME =     0.22 SECS, INTEGRAL =     16.65 TIME LEFT: 172783.02
 STEP:  74 TIME =     0.22 SECS, INTEGRAL =     16.87 TIME LEFT: 172782.81
 STEP:  75 TIME =     0.22 SECS, INTEGRAL =     17.08 TIME LEFT: 172782.59
 STEP:  76 TIME =     0.25 SECS, INTEGRAL =     17.34 TIME LEFT: 172782.34
 STEP:  77 TIME =     0.24 SECS, INTEGRAL =     17.58 TIME LEFT: 172782.09
 STEP:  78 TIME =     0.23 SECS, INTEGRAL =     17.81 TIME LEFT: 172781.86
 STEP:  79 TIME =     0.24 SECS, INTEGRAL =     18.05 TIME LEFT: 172781.62
 STEP:  80 TIME =     0.23 SECS, INTEGRAL =     18.29 TIME LEFT: 172781.39
 STEP:  81 TIME =     0.25 SECS, INTEGRAL =     18.54 TIME LEFT: 172781.13
 STEP:  82 TIME =     0.24 SECS, INTEGRAL =     18.78 TIME LEFT: 172780.89
 STEP:  83 TIME =     0.23 SECS, INTEGRAL =     19.01 TIME LEFT: 172780.66
 STEP:  84 TIME =     0.24 SECS, INTEGRAL =     19.25 TIME LEFT: 172780.42
 STEP:  85 TIME =     0.24 SECS, INTEGRAL =     19.49 TIME LEFT: 172780.18
 STEP:  86 TIME =     0.23 SECS, INTEGRAL =     19.73 TIME LEFT: 172779.94
 STEP:  87 TIME =     0.23 SECS, INTEGRAL =     19.96 TIME LEFT: 172779.71
 STEP:  88 TIME =     0.22 SECS, INTEGRAL =     20.18 TIME LEFT: 172779.49
 STEP:  89 TIME =     0.22 SECS, INTEGRAL =     20.40 TIME LEFT: 172779.28
 STEP:  90 TIME =     0.22 SECS, INTEGRAL =     20.61 TIME LEFT: 172779.06
 STEP:  91 TIME =     0.22 SECS, INTEGRAL =     20.84 TIME LEFT: 172778.84
 STEP:  92 TIME =     0.23 SECS, INTEGRAL =     21.06 TIME LEFT: 172778.61
 STEP:  93 TIME =     0.25 SECS, INTEGRAL =     21.32 TIME LEFT: 172778.36
 STEP:  94 TIME =     0.24 SECS, INTEGRAL =     21.55 TIME LEFT: 172778.12
 STEP:  95 TIME =     0.23 SECS, INTEGRAL =     21.79 TIME LEFT: 172777.89
 STEP:  96 TIME =     0.24 SECS, INTEGRAL =     22.03 TIME LEFT: 172777.65
 STEP:  97 TIME =     0.22 SECS, INTEGRAL =     22.25 TIME LEFT: 172777.42
 STEP:  98 TIME =     0.22 SECS, INTEGRAL =     22.47 TIME LEFT: 172777.21
 STEP:  99 TIME =     0.22 SECS, INTEGRAL =     22.68 TIME LEFT: 172776.99
 STEP: 100 TIME =     0.22 SECS, INTEGRAL =     22.90 TIME LEFT: 172776.77
 STEP: 101 TIME =     0.22 SECS, INTEGRAL =     23.12 TIME LEFT: 172776.55
 STEP: 102 TIME =     0.22 SECS, INTEGRAL =     23.34 TIME LEFT: 172776.33
 STEP: 103 TIME =     0.23 SECS, INTEGRAL =     23.57 TIME LEFT: 172776.10
 STEP: 104 TIME =     0.23 SECS, INTEGRAL =     23.80 TIME LEFT: 172775.87
 STEP: 105 TIME =     0.23 SECS, INTEGRAL =     24.04 TIME LEFT: 172775.63
 STEP: 106 TIME =     0.23 SECS, INTEGRAL =     24.26 TIME LEFT: 172775.41
 STEP: 107 TIME =     0.23 SECS, INTEGRAL =     24.49 TIME LEFT: 172775.18
 STEP: 108 TIME =     0.22 SECS, INTEGRAL =     24.71 TIME LEFT: 172774.96
 STEP: 109 TIME =     0.22 SECS, INTEGRAL =     24.94 TIME LEFT: 172774.73
 STEP: 110 TIME =     0.23 SECS, INTEGRAL =     25.16 TIME LEFT: 172774.51
 STEP: 111 TIME =     0.27 SECS, INTEGRAL =     25.44 TIME LEFT: 172774.24
 STEP: 112 TIME =     0.26 SECS, INTEGRAL =     25.70 TIME LEFT: 172773.97
 STEP: 113 TIME =     0.26 SECS, INTEGRAL =     25.96 TIME LEFT: 172773.71
 STEP: 114 TIME =     0.23 SECS, INTEGRAL =     26.19 TIME LEFT: 172773.48
 STEP: 115 TIME =     0.25 SECS, INTEGRAL =     26.44 TIME LEFT: 172773.23
 STEP: 116 TIME =     0.23 SECS, INTEGRAL =     26.67 TIME LEFT: 172773.00
 STEP: 117 TIME =     0.23 SECS, INTEGRAL =     26.91 TIME LEFT: 172772.76
 STEP: 118 TIME =     0.24 SECS, INTEGRAL =     27.15 TIME LEFT: 172772.53
 STEP: 119 TIME =     0.25 SECS, INTEGRAL =     27.39 TIME LEFT: 172772.28
 STEP: 120 TIME =     0.25 SECS, INTEGRAL =     27.65 TIME LEFT: 172772.02
 STEP: 121 TIME =     0.24 SECS, INTEGRAL =     27.88 TIME LEFT: 172771.79
 STEP: 122 TIME =     0.24 SECS, INTEGRAL =     28.13 TIME LEFT: 172771.54
 STEP: 123 TIME =     0.26 SECS, INTEGRAL =     28.38 TIME LEFT: 172771.29
 STEP: 124 TIME =     0.24 SECS, INTEGRAL =     28.62 TIME LEFT: 172771.05
 STEP: 125 TIME =     0.24 SECS, INTEGRAL =     28.87 TIME LEFT: 172770.80
 STEP: 126 TIME =     0.25 SECS, INTEGRAL =     29.11 TIME LEFT: 172770.56
 STEP: 127 TIME =     0.25 SECS, INTEGRAL =     29.36 TIME LEFT: 172770.31
 STEP: 128 TIME =     0.25 SECS, INTEGRAL =     29.61 TIME LEFT: 172770.06
 STEP: 129 TIME =     0.25 SECS, INTEGRAL =     29.86 TIME LEFT: 172769.81
 STEP: 130 TIME =     0.24 SECS, INTEGRAL =     30.10 TIME LEFT: 172769.57
 STEP: 131 TIME =     0.24 SECS, INTEGRAL =     30.34 TIME LEFT: 172769.33
 STEP: 132 TIME =     0.24 SECS, INTEGRAL =     30.58 TIME LEFT: 172769.09
 STEP: 133 TIME =     0.24 SECS, INTEGRAL =     30.82 TIME LEFT: 172768.86
 STEP: 134 TIME =     0.24 SECS, INTEGRAL =     31.05 TIME LEFT: 172768.62
 STEP: 135 TIME =     0.24 SECS, INTEGRAL =     31.29 TIME LEFT: 172768.38
 STEP: 136 TIME =     0.24 SECS, INTEGRAL =     31.53 TIME LEFT: 172768.14
 STEP: 137 TIME =     0.24 SECS, INTEGRAL =     31.77 TIME LEFT: 172767.90
 STEP: 138 TIME =     0.23 SECS, INTEGRAL =     32.00 TIME LEFT: 172767.67
 STEP: 139 TIME =     0.24 SECS, INTEGRAL =     32.24 TIME LEFT: 172767.43
 STEP: 140 TIME =     0.24 SECS, INTEGRAL =     32.48 TIME LEFT: 172767.19
 STEP: 141 TIME =     0.24 SECS, INTEGRAL =     32.72 TIME LEFT: 172766.95
 STEP: 142 TIME =     0.24 SECS, INTEGRAL =     32.96 TIME LEFT: 172766.71
 STEP: 143 TIME =     0.23 SECS, INTEGRAL =     33.19 TIME LEFT: 172766.48
 STEP: 144 TIME =     0.24 SECS, INTEGRAL =     33.42 TIME LEFT: 172766.25
 STEP: 145 TIME =     0.22 SECS, INTEGRAL =     33.65 TIME LEFT: 172766.02
 STEP: 146 TIME =     0.23 SECS, INTEGRAL =     33.88 TIME LEFT: 172765.79
 STEP: 147 TIME =     0.23 SECS, INTEGRAL =     34.10 TIME LEFT: 172765.57
 STEP: 148 TIME =     0.23 SECS, INTEGRAL =     34.33 TIME LEFT: 172765.34
 STEP: 149 TIME =     0.23 SECS, INTEGRAL =     34.56 TIME LEFT: 172765.11
 STEP: 150 TIME =     0.23 SECS, INTEGRAL =     34.79 TIME LEFT: 172764.88
 STEP: 151 TIME =     0.25 SECS, INTEGRAL =     35.04 TIME LEFT: 172764.64
 STEP: 152 TIME =     0.24 SECS, INTEGRAL =     35.28 TIME LEFT: 172764.39
 STEP: 153 TIME =     0.24 SECS, INTEGRAL =     35.52 TIME LEFT: 172764.15
 STEP: 154 TIME =     0.23 SECS, INTEGRAL =     35.75 TIME LEFT: 172763.92
 STEP: 155 TIME =     0.26 SECS, INTEGRAL =     36.02 TIME LEFT: 172763.66
 STEP: 156 TIME =     0.24 SECS, INTEGRAL =     36.26 TIME LEFT: 172763.41
 STEP: 157 TIME =     0.23 SECS, INTEGRAL =     36.50 TIME LEFT: 172763.18
 STEP: 158 TIME =     0.23 SECS, INTEGRAL =     36.72 TIME LEFT: 172762.95
 STEP: 159 TIME =     0.23 SECS, INTEGRAL =     36.95 TIME LEFT: 172762.72
 STEP: 160 TIME =     0.25 SECS, INTEGRAL =     37.20 TIME LEFT: 172762.47
 STEP: 161 TIME =     0.24 SECS, INTEGRAL =     37.44 TIME LEFT: 172762.23
 STEP: 162 TIME =     0.23 SECS, INTEGRAL =     37.67 TIME LEFT: 172762.00

(To convert to Hartree/Bohr^2, multiply by (10^(-21) x N x a0^2)/(4.184 x 627.51) = 0.0642)


           FORCE MATRIX IN MILLIDYNES/ANGSTROM


                  C  1       C  2       C  3       C  4       C  5       C  6
 ------------------------------------------------------------------------------
     C    1  13.182000
     C    2   2.683556  11.907776
     C    3   0.824966   3.829866  15.821465
     C    4   0.124033   0.849360   7.542407  15.969567
     C    5   0.021410   0.110337   0.944242   3.510207  12.903873
     C    6   0.018522   0.029382   0.382536   0.818694   3.608644  16.104762
     C    7   0.035406   0.137641   1.653080   0.396573   0.924379   7.777803
     C    8   0.011154   0.038428   0.138508   0.031530   0.115364   0.835036
     C    9   0.004315   0.011589   0.038306   0.019989   0.020856   0.110571
     C   10   0.005920   0.010417   0.054902   0.046891   0.047249   0.773153
     C   11   0.020712   0.039890   0.354103   0.180166   0.694310   3.543374
     O   12   0.009346   0.017151   0.133349   0.072239   0.064761   1.677052
     O   13   0.074334   0.986844   3.657974   1.618328   0.264946   1.551460
     C   14   0.821801   0.186252   1.878986   3.653224   0.715602   0.173199
     O   15   0.121662   0.098387   0.459812   1.764879   0.083610   0.076212
     C   16   2.824763   0.727473   0.079483   0.760445   0.049319   0.039705
     H   17   0.591985   3.203202   0.730967   0.057406   0.019240   0.011394
     H   18   0.592441   3.269348   0.711174   0.062297   0.015083   0.011987
     H   19   0.004215   0.014614   0.043799   0.644641   3.127316   0.643494
     H   20   0.002131   0.004875   0.020236   0.011575   0.019552   0.052445
     H   21   0.002356   0.005632   0.021428   0.010887   0.015347   0.056866
     H   22   0.001560   0.002499   0.012478   0.007767   0.005020   0.042433
     H   23   0.001521   0.002913   0.016217   0.010732   0.009077   0.085712
     H   24   0.605458   0.046704   0.026790   0.051547   0.007953   0.005314
     H   25   0.609940   0.019750   0.041140   0.043259   0.006685   0.008090
     C   26   0.011030   0.031068   0.103638   0.774342   3.440741   0.736836
     C   27   0.009154   0.009929   0.020290   0.065568   0.745872   0.062691
     C   28   0.002752   0.005802   0.014534   0.022293   0.066174   0.027452
     C   29   0.007740   0.015152   0.040459   0.057436   0.097347   0.049324
     H   30   0.000949   0.002125   0.005753   0.007031   0.011776   0.006983
     C   31   0.006893   0.015869   0.040501   0.059106   0.138002   0.048361
     C   32   0.007308   0.015490   0.046751   0.055886   0.794262   0.046918
     H   33   0.000650   0.001849   0.005229   0.005232   0.010563   0.006248
     H   34   0.001097   0.002057   0.012223   0.011002   0.036257   0.023562
     O   35   0.011561   0.010168   0.033710   0.064517   0.118227   0.037066
     H   36   0.022036   0.020049   0.074740   0.095678   0.115932   0.028699
     O   37   0.005052   0.011896   0.030877   0.044718   0.078398   0.035499
     H   38   0.000822   0.002484   0.006433   0.008917   0.015515   0.007827
     C   39   3.211411   0.733691   0.056090   0.057368   0.011637   0.011931
     H   40   0.620888   0.013532   0.013769   0.006654   0.001918   0.002256
     H   41   0.609620   0.048842   0.009189   0.005841   0.001324   0.001520
     H   42   0.610257   0.008878   0.037287   0.009053   0.003433   0.003854


                  C  1       C  2       C  3       C  4       C  5       C  6
 ------------------------------------------------------------------------------
     C   43   3.246110   0.704413   0.057509   0.032757   0.008804   0.011111
     H   44   0.617874   0.015869   0.007458   0.004632   0.001178   0.001796
     H   45   0.611643   0.014682   0.007070   0.005607   0.001478   0.001997
     H   46   0.622294   0.043548   0.013186   0.005886   0.001544   0.001738
     C   47   0.002516   0.005385   0.021419   0.011444   0.007738   0.029787
     H   48   0.000601   0.000978   0.003113   0.001838   0.001103   0.004772
     H   49   0.000456   0.000605   0.002537   0.001642   0.001286   0.005330
     H   50   0.000737   0.000997   0.003852   0.002212   0.001123   0.004791
     C   51   0.002366   0.004807   0.021089   0.013326   0.012097   0.044499
     H   52   0.000764   0.001270   0.005906   0.003762   0.003026   0.007706
     H   53   0.000787   0.001231   0.009935   0.005532   0.004377   0.047396
     H   54   0.000672   0.001068   0.003652   0.002441   0.001803   0.006336


                  C  7       C  8       C  9       C 10       C 11       O 12
 ------------------------------------------------------------------------------
     C    7  15.949064
     C    8   3.844031  11.920824
     C    9   0.815416   2.690824  13.208023
     C   10   0.093054   0.737185   2.839259  11.870893
     C   11   1.787240   0.185468   0.829649   3.279888  16.265896
[...]
 T-DIPOLE    0.7963        C 43 --  H 45          +21.1% ( 47.4%)    98.8%
 TRAVEL      0.1311        C 43 --  H 46          +13.7% ( 38.1%)    96.1%
 RED. MASS   0.2763        C 39 --  H 41          +11.5% ( 35.0%)    87.1%
 EFF. MASS   1.4622

 VIBRATION  143  143A       ATOM PAIR        ENERGY CONTRIBUTION    RADIAL
 FREQ.      2683.41        C 47 --  H 49          +42.3% ( 67.1%)    98.4%
 T-DIPOLE    0.8594        C 47 --  H 48          +32.8% ( 59.1%)    96.8%
 TRAVEL      0.1311        C 51 --  H 52          +14.1% ( 38.8%)    99.3%
 RED. MASS   0.3232        C 51 --  H 53           +5.8% ( 24.8%)    91.4%
 EFF. MASS   1.4621

 VIBRATION  144  144A       ATOM PAIR        ENERGY CONTRIBUTION    RADIAL
 FREQ.      2684.57        C 51 --  H 52          +34.8% ( 60.9%)    99.1%
 T-DIPOLE    1.0560        C 47 --  H 48          +24.4% ( 51.0%)    98.8%
 TRAVEL      0.1307        C 51 --  H 54          +18.7% ( 44.6%)    94.2%
 RED. MASS   0.2530        C 47 --  H 50          +16.0% ( 41.3%)    95.5%
 EFF. MASS   1.4697

 VIBRATION  145  145A       ATOM PAIR        ENERGY CONTRIBUTION    RADIAL
 FREQ.      2687.77        C 39 --  H 42          +52.5% ( 74.7%)    98.4%
 T-DIPOLE    0.7254        C 39 --  H 41          +41.8% ( 66.7%)    97.0%
 TRAVEL      0.1311        C 43 --  H 44           +1.8% ( 14.0%)    98.0%
 RED. MASS   0.4685        C 43 --  H 46           +1.6% ( 13.1%)    97.6%
 EFF. MASS   1.4597

 VIBRATION  146  146A       ATOM PAIR        ENERGY CONTRIBUTION    RADIAL
 FREQ.      2719.51        C  2 --  H 18          +44.3% ( 65.4%)    97.6%
 T-DIPOLE    1.2390        C  2 --  H 17          +33.0% ( 56.5%)    95.7%
 TRAVEL      0.1408        C 16 --  H 24          +12.4% ( 34.6%)    98.1%
 RED. MASS   0.3201        C 16 --  H 25           +7.5% ( 26.8%)    95.4%
 EFF. MASS   1.2512

 VIBRATION  147  147A       ATOM PAIR        ENERGY CONTRIBUTION    RADIAL
 FREQ.      2722.89        C  8 --  H 21          +49.0% ( 68.8%)    97.6%
 T-DIPOLE    1.4220        C  8 --  H 20          +35.8% ( 58.8%)    95.6%
 TRAVEL      0.1406        C 10 --  H 23           +6.3% ( 24.8%)    97.8%
 RED. MASS   0.3679        C 10 --  H 22           +4.4% ( 20.5%)    96.2%
 EFF. MASS   1.2524

 VIBRATION  148  148A       ATOM PAIR        ENERGY CONTRIBUTION    RADIAL
 FREQ.      2726.92        C 16 --  H 24          +45.6% ( 66.3%)    97.9%
 T-DIPOLE    1.1775        C 16 --  H 25          +29.6% ( 53.4%)    94.9%
 TRAVEL      0.1398        C  2 --  H 18          +11.4% ( 33.1%)    97.4%
 RED. MASS   0.3095        C  2 --  H 17           +8.9% ( 29.3%)    95.2%
 EFF. MASS   1.2648

 VIBRATION  149  149A       ATOM PAIR        ENERGY CONTRIBUTION    RADIAL
 FREQ.      2731.18        C 32 --  H 34          +86.9% ( 94.3%)   100.0%
 T-DIPOLE    0.8295        C 31 --  H 33          +10.3% ( 32.4%)    99.9%
 TRAVEL      0.1334        C 31 --  C 32           +1.0% ( 10.0%)     6.4%
 RED. MASS   0.7443        C 26 --  C 32           +1.0% (  9.9%)    18.8%
 EFF. MASS   1.3868

 VIBRATION  150  150A       ATOM PAIR        ENERGY CONTRIBUTION    RADIAL
 FREQ.      2732.16        C 10 --  H 23          +49.5% ( 69.1%)    97.6%
 T-DIPOLE    0.9643        C 10 --  H 22          +35.9% ( 58.8%)    95.4%
 TRAVEL      0.1398        C  8 --  H 21           +6.4% ( 24.9%)    97.4%
 RED. MASS   0.3735        C  8 --  H 20           +5.0% ( 21.9%)    95.0%
 EFF. MASS   1.2633

 VIBRATION  151  151A       ATOM PAIR        ENERGY CONTRIBUTION    RADIAL
 FREQ.      2747.66        C 28 --  H 30          +58.3% ( 77.1%)   100.0%
 T-DIPOLE    1.8970        C 31 --  H 33          +37.4% ( 61.8%)   100.0%
 TRAVEL      0.1335        C 32 --  H 34           +2.2% ( 15.1%)    99.6%
 RED. MASS   0.4653        C 27 --  C 28           +0.6% (  7.9%)    24.7%
 EFF. MASS   1.3763

 VIBRATION  152  152A       ATOM PAIR        ENERGY CONTRIBUTION    RADIAL
 FREQ.      2755.96        C 31 --  H 33          +50.2% ( 71.5%)   100.0%
 T-DIPOLE    0.8357        C 28 --  H 30          +39.0% ( 63.0%)   100.0%
 TRAVEL      0.1310        C 32 --  H 34           +8.3% ( 29.1%)    99.9%
 RED. MASS   0.4000        C 31 --  C 32           +0.7% (  8.7%)    64.8%
 EFF. MASS   1.4267

 VIBRATION  153  153A       ATOM PAIR        ENERGY CONTRIBUTION    RADIAL
 FREQ.      2786.33        C 51 --  H 52          +23.1% ( 46.2%)    96.0%
 T-DIPOLE    0.5865        C 51 --  H 54          +21.5% ( 44.5%)    95.7%
 TRAVEL      0.1458        C 51 --  H 53          +20.7% ( 43.7%)    95.5%
 RED. MASS   0.1791        C 47 --  H 50          +11.6% ( 32.7%)    95.6%
 EFF. MASS   1.1384        C 47 --  H 48          +11.5% ( 32.6%)    95.9%
                           C 47 --  H 49          +11.2% ( 32.2%)    95.7%

 VIBRATION  154  154A       ATOM PAIR        ENERGY CONTRIBUTION    RADIAL
 FREQ.      2787.84        C 43 --  H 46          +26.8% ( 49.7%)    95.9%
 T-DIPOLE    0.6772        C 43 --  H 44          +25.1% ( 48.2%)    95.5%
 TRAVEL      0.1457        C 43 --  H 45          +24.7% ( 47.8%)    95.4%
 RED. MASS   0.2106        C 39 --  H 41           +8.6% ( 28.1%)    96.7%
 EFF. MASS   1.1397

 VIBRATION  155  155A       ATOM PAIR        ENERGY CONTRIBUTION    RADIAL
 FREQ.      2790.61        C 47 --  H 48          +22.6% ( 45.7%)    95.6%
 T-DIPOLE    0.5914        C 47 --  H 49          +21.3% ( 44.3%)    95.2%
 TRAVEL      0.1451        C 47 --  H 50          +21.0% ( 44.1%)    95.3%
 RED. MASS   0.1766        C 51 --  H 52          +11.6% ( 32.7%)    95.7%
 EFF. MASS   1.1479        C 51 --  H 54          +11.5% ( 32.6%)    95.3%
                           C 51 --  H 53          +10.9% ( 31.6%)    95.0%

 VIBRATION  156  156A       ATOM PAIR        ENERGY CONTRIBUTION    RADIAL
 FREQ.      2791.71        C 39 --  H 41          +26.3% ( 49.3%)    95.6%
 T-DIPOLE    0.5404        C 39 --  H 42          +25.5% ( 48.5%)    95.6%
 TRAVEL      0.1451        C 39 --  H 40          +24.5% ( 47.6%)    95.2%
 RED. MASS   0.2083        C 43 --  H 44           +7.9% ( 27.0%)    95.4%
 EFF. MASS   1.1474

 SYMMETRY NUMBER FOR POINT-GROUP C1  =  1


          SYSTEM IS A GROUND STATE


                                                                                                                                                                                                                                                 
 SJ000002349-1_T001S001I001C08: Free energy calculation                                                                                                                                                                                          


          MOLECULE IS NOT LINEAR

          THERE ARE  156 GENUINE VIBRATIONS IN THIS SYSTEM
          THIS THERMODYNAMICS CALCULATION IS LIMITED TO
          MOLECULES WHICH HAVE NO INTERNAL ROTATIONS




                    CALCULATED THERMODYNAMIC PROPERTIES
                                          *
   TEMP. (K)   PARTITION FUNCTION   H.O.F.    ENTHALPY  HEAT CAPACITY ENTROPY
                                   KCAL/MOL   CAL/MOLE    CAL/K/MOL  CAL/K/MOL


 298.00  VIB.     0.5091D+10                 14866.8019    99.8382    94.3040
         ROT.     0.1495D+08                   888.2813     2.9808    35.8095
         INT.     0.7609D+17                 15755.0832   102.8190   130.1134
         TRA.     0.7231D+28                  1480.4688     4.9680    43.7144
         TOT.                     -231.785   17235.5521   107.7870   173.8278

 200.00  VIB.     0.1326D+07                  6686.9442    67.2543    61.4500
         ROT.     0.8218D+07                   596.1620     2.9808    34.6208
         INT.     0.1090D+14                  7283.1062    70.2352    96.0708
         TRA.     0.3976D+28                   993.6033     4.9680    41.7332
         TOT.                     -240.744    8276.7094    75.2032   137.8041

 210.00  VIB.     0.3076D+07                  7375.8236    70.5237    64.8104
         ROT.     0.8842D+07                   625.9700     2.9808    34.7662
         INT.     0.2720D+14                  8001.7936    73.5046    99.5767
         TRA.     0.4278D+28                  1043.2834     4.9680    41.9756
         TOT.                     -239.976    9045.0771    78.4726   141.5523

 220.00  VIB.     0.7139D+07                  8097.4687    73.8079    68.1669
         ROT.     0.9481D+07                   655.7781     2.9808    34.9049
         INT.     0.6769D+14                  8753.2468    76.7887   103.0718
         TRA.     0.4587D+28                  1092.9636     4.9680    42.2067
         TOT.                     -239.175    9846.2104    81.7568   145.2786

 230.00  VIB.     0.1657D+08                  8852.0375    77.1086    71.5206
         ROT.     0.1013D+08                   685.5862     2.9808    35.0374
         INT.     0.1679D+15                  9537.6238    80.0894   106.5580
         TRA.     0.4903D+28                  1142.6437     4.9680    42.4276
         TOT.                     -238.341   10680.2675    85.0575   148.9856

 240.00  VIB.     0.3846D+08                  9639.6963    80.4258    74.8723
         ROT.     0.1080D+08                   715.3943     2.9808    35.1643
         INT.     0.4155D+15                 10355.0906    83.4066   110.0366
         TRA.     0.5226D+28                  1192.3239     4.9680    42.6390
         TOT.                     -237.474   11547.4145    88.3746   152.6756

 250.00  VIB.     0.8929D+08                 10460.6020    83.7576    78.2230
         ROT.     0.1149D+08                   745.2024     2.9808    35.2860
         INT.     0.1025D+16                 11205.8045    86.7384   113.5089
         TRA.     0.5556D+28                  1242.0041     4.9680    42.8418
         TOT.                     -236.573   12447.8085    91.7065   156.3507

 260.00  VIB.     0.2073D+09                 11314.8885    87.1013    81.5731
         ROT.     0.1218D+08                   775.0105     2.9808    35.4029
         INT.     0.2525D+16                 12089.8990    90.0821   116.9760
         TRA.     0.5893D+28                  1291.6842     4.9680    43.0367
         TOT.                     -235.639   13381.5832    95.0501   160.0126

 270.00  VIB.     0.4813D+09                 12202.6548    90.4529    84.9232
         ROT.     0.1289D+08                   804.8186     2.9808    35.5154
         INT.     0.6204D+16                 13007.4734    93.4337   120.4385
         TRA.     0.6236D+28                  1341.3644     4.9680    43.2242
         TOT.                     -234.672   14348.8378    98.4017   163.6627

 280.00  VIB.     0.1117D+10                 13123.9570    93.8077    88.2734
         ROT.     0.1361D+08                   834.6267     2.9808    35.6238
         INT.     0.1521D+17                 13958.5838    96.7885   123.8971
         TRA.     0.6586D+28                  1391.0445     4.9680    43.4048
         TOT.                     -233.671   15349.6283   101.7565   167.3020

 290.00  VIB.     0.2595D+10                 14078.8026    97.1607    91.6237
         ROT.     0.1435D+08                   864.4348     2.9808    35.7284
         INT.     0.3723D+17                 14943.2374   100.1415   127.3521
         TRA.     0.6942D+28                  1440.7247     4.9680    43.5792
         TOT.                     -232.637   16383.9621   105.1095   170.9312

 300.00  VIB.     0.6025D+10                 15067.1467   100.5065    94.9740
         ROT.     0.1510D+08                   894.2429     2.9808    35.8294
         INT.     0.9096D+17                 15961.3896   103.4873   130.8034
         TRA.     0.7304D+28                  1490.4049     4.9680    43.7476
         TOT.                     -231.569   17451.7945   108.4554   174.5510

 310.00  VIB.     0.1399D+11                 16088.8918   103.8400    98.3240
         ROT.     0.1586D+08                   924.0510     2.9808    35.9272
         INT.     0.2219D+18                 17012.9428   106.8208   134.2512
         TRA.     0.7672D+28                  1540.0850     4.9680    43.9105
         TOT.                     -230.468   18553.0278   111.7888   178.1617

 320.00  VIB.     0.3249D+11                 17143.8875   107.1558   101.6732
         ROT.     0.1663D+08                   953.8591     2.9808    36.0218
         INT.     0.5403D+18                 18097.7466   110.1366   137.6950
         TRA.     0.8046D+28                  1589.7652     4.9680    44.0682
         TOT.                     -229.333   19687.5118   115.1046   181.7632

 330.00  VIB.     0.7544D+11                 18231.9329   110.4491   105.0210
         ROT.     0.1742D+08                   983.6672     2.9808    36.1135
         INT.     0.1314D+19                 19215.6001   113.4299   141.1346
         TRA.     0.8426D+28                  1639.4454     4.9680    44.2211
         TOT.                     -228.166   20855.0455   118.3979   185.3557

 340.00  VIB.     0.1752D+12                 19352.7794   113.7153   108.3668
         ROT.     0.1822D+08                  1013.4753     2.9808    36.2025
         INT.     0.3191D+19                 20366.2547   116.6961   144.5694
         TRA.     0.8812D+28                  1689.1255     4.9680    44.3694
         TOT.                     -226.966   22055.3802   121.6641   188.9388

 350.00  VIB.     0.4068D+12                 20506.1342   116.9501   111.7099
         ROT.     0.1903D+08                  1043.2834     2.9808    36.2889
         INT.     0.7739D+19                 21549.4176   119.9309   147.9988
         TRA.     0.9204D+28                  1738.8057     4.9680    44.5134
         TOT.                     -225.733   23288.2233   124.8989   192.5123

 360.00  VIB.     0.9444D+12                 21691.6646   120.1498   115.0494
         ROT.     0.1985D+08                  1073.0915     2.9808    36.3729
         INT.     0.1874D+20                 22764.7561   123.1306   151.4223
         TRA.     0.9601D+28                  1788.4859     4.9680    44.6534
         TOT.                     -224.468   24553.2420   128.0986   196.0757

 370.00  VIB.     0.2192D+13                 22909.0022   123.3110   118.3846
         ROT.     0.2068D+08                  1102.8996     2.9808    36.4546
         INT.     0.4533D+20                 24011.9018   126.2918   154.8392
         TRA.     0.1000D+29                  1838.1660     4.9680    44.7895
         TOT.                     -223.171   25850.0678   131.2599   199.6287

 380.00  VIB.     0.5088D+13                 24157.7473   126.4309   121.7146
         ROT.     0.2152D+08                  1132.7077     2.9808    36.5341
         INT.     0.1095D+21                 25290.4550   129.4117   158.2487
         TRA.     0.1041D+29                  1887.8462     4.9680    44.9220
         TOT.                     -221.843   27178.3012   134.3797   203.1707

 390.00  VIB.     0.1181D+14                 25437.4732   129.5068   125.0386
         ROT.     0.2238D+08                  1162.5158     2.9808    36.6115
         INT.     0.2642D+21                 26599.9890   132.4876   161.6501
         TRA.     0.1083D+29                  1937.5263     4.9680    45.0510
         TOT.                     -220.483   28537.5154   137.4557   206.7011

 400.00  VIB.     0.2739D+14                 26747.7308   132.5369   128.3557
         ROT.     0.2324D+08                  1192.3239     2.9808    36.6870
         INT.     0.6366D+21                 27940.0547   135.5177   165.0427
         TRA.     0.1125D+29                  1987.2065     4.9680    45.1768
         TOT.                     -219.094   29927.2612   140.4857   210.2195

   *: NOTE: HEATS OF FORMATION ARE RELATIVE TO THE
             ELEMENTS IN THEIR STANDARD STATE AT 298K
              (=  Standard Enthalpy of Formation).
            Heat of Formation at T is calculated as [Escf + (HT - H298.15)-.

            Hvib:  Zero-point energy is not included.
                   Wi < 100 cm-1 are not included.
            Hrot = (3/2)RT
            Htra = (3/2)RT + pV = (5/2)RT

            Heat capacity is Cp, not Cv

                 See Section 8.20 in Manual for further information.   (by TH).

           FORCE CONSTANT IN CARTESIAN COORDINATES (Millidynes/A)

    ATOM   CHEMICAL       X               Y               Z
   NUMBER   SYMBOL  FORCE CONSTANT  FORCE CONSTANT  FORCE CONSTANT

      1       C        7.277198        7.829498        7.692375
      2       C        6.844545        7.529243        6.138268
      3       C        7.802818       12.209467        3.960154
      4       C        9.065881       11.493840        3.726634
      5       C        7.573079        7.456669        7.264740
      6       C        7.533772       11.884126        5.055237
      7       C        8.049249       11.120877        4.903310
      8       C        7.082704        6.764190        6.674955
      9       C        8.005496        7.206846        7.629509
     10       C        6.990145        6.895483        6.597263
     11       C        8.098451       12.544051        4.224047
     12       O        3.069498        9.851957        0.848339
     13       O        5.593161        5.857721        1.785537
     14       C        9.110898       11.688554        3.840321
     15       O        4.376983        7.999053        0.988647
     16       C        6.766116        7.416289        6.238294
     17       H        1.107178        1.484065        2.662237
     18       H        1.117042        1.671767        2.537733
     19       H        2.012528        2.305915        1.212613
     20       H        2.617186        0.823259        1.813944
     21       H        0.637640        2.678059        2.030723
     22       H        2.372726        0.578021        2.317569
     23       H        0.744195        3.156625        1.468746
     24       H        4.040403        0.748594        0.578922
     25       H        0.618736        1.117848        3.490841
     26       C        8.582592        5.076434        9.450583
     27       C        8.487262        5.302459        9.825249
     28       C        8.268904        4.766830        8.999837
     29       C        9.039989        5.528037        9.087969
     30       H        1.920780        1.768251        1.628901
     31       C        7.584356        5.100383        9.372895
     32       C        7.932031        4.984176        9.311113
     33       H        3.124893        0.904731        1.340244
     34       H        1.938304        1.822597        1.684848
     35       O        5.267795        2.457250        3.356931
     36       H        1.097635        0.841671        1.895521
     37       O        3.070771        2.140213        5.896131
     38       H        1.380209        1.377901        1.557853
     39       C        6.405347        6.419642        6.810533
     40       H        0.870148        2.015571        2.454341
     41       H        4.127128        0.526621        0.680295
     42       H        0.894478        3.476425        0.986615
     43       C        6.396942        6.856685        6.397155
     44       H        0.907156        2.403226        2.019837
     45       H        0.882184        0.982756        3.465514
     46       H        4.107368        0.707473        0.529587
     47       C        6.900545        6.344392        6.414380
     48       H        0.795335        2.696889        1.846894
     49       H        0.960627        2.896232        1.471784
     50       H        2.192242        0.529779        2.606722
     51       C        6.621006        6.332315        6.699130
     52       H        3.921345        0.504834        0.909485
     53       H        0.707499        3.035973        1.538716
     54       H        0.633101        2.525513        2.168015



 TOTAL CPU TIME:            73.39 SECONDS

 == MOPAC DONE ==
