 *******************************************************************************
 ** Site#:  958            For non-commercial use only         Version 9.015L **
 *******************************************************************************
 ** Cite this work as: MOPAC2009, James J. P. Stewart, Stewart Computational  **
 ** Chemistry, Version 9.015L web: HTTP://OpenMOPAC.net                       **
 *******************************************************************************
 **                                                                           **
 **                                MOPAC2009                                  **
 **                                                                           **
 *******************************************************************************

                            PM6 CALCULATION RESULTS


 *******************************************************************************
 *  CALCULATION DONE:                                Tue Sep  6 16:24:40 2011  *
 *  PM6      - The PM6 Hamiltonian to be used
 *
 *
 *
 *                 CHARGE ON SYSTEM =     0
 *
 *
 *
 *  EPS= 78.400
 *  RSOLV=  1.300
 *  LET      - OVERRIDE SOME SAFETY CHECKS
 *  XYZ      - CARTESIAN COORDINATE SYSTEM TO BE USED
 *  T=       - A TIME OF  0.3E+08 SECONDS REQUESTED
 *  DUMP=N   - RESTART FILE WRITTEN EVERY  4320.000 SECONDS
 *  DDMIN=   - MINIMUM TRUST RADIUS  0.000 ANG/RAD
 *  GNORM=   - EXIT WHEN GRADIENT NORM DROPS BELOW .150    
 *  RELSCF   - DEFAULT SCF CRITERION MULTIPLIED BY   0.100    
 *             (DEFAULT SCFCRT= 0.00010)
 *  SYBYL    - OUTPUT SYBYL FILE
 *  MULLIK   - THE MULLIKEN ANALYSIS TO BE PERFORMED
 *******************************************************************************
 PM6 T=31535772 DUMP=4320 XYZ EPS=78.40 RSOLV=1.30 MULLIK SYBYL +
 CHARGE=-0 RELSCF=0.1 LET DDMIN=0.0 GNORM=0.15
 SJ000001185-1_T001S001I001C01: Geometry optimization step

   ATOM   CHEMICAL          X               Y              Z
  NUMBER   SYMBOL      (ANGSTROMS)     (ANGSTROMS)    (ANGSTROMS)
 
     1       N          0.1150000  *   -2.807000  *    2.391000  *
     2       C         -0.0250000  *   -4.145000  *    2.357000  *
     3       O         -0.1670000  *   -4.712000  *    1.290000  *
     4       C         -0.0060000  *   -4.926000  *    3.603000  *
     5       C         -0.1460000  *   -6.306000  *    3.614000  *
     6       C         -0.1230000  *   -7.000000  *    4.819000  *
     7       C          0.0370000  *   -6.356000  *    6.012000  *
     8       C          0.1600000  *   -4.243000  *    4.829000  *
     9       C          0.1830000  *   -4.958000  *    6.044000  *
    10       C          0.3510000  *   -4.250000  *    7.247000  *
    11       C          0.4880000  *   -2.892000  *    7.227000  *
    12       C          0.4670000  *   -2.175000  *    6.036000  *
    13       C          0.3040000  *   -2.837000  *    4.828000  *
    14       C          0.2800000  *   -2.126000  *    3.541000  *
    15       O          0.4020000  *   -0.916000  *    3.515000  *
    16       H         -0.2750000  *   -6.842000  *    2.686000  *
    17       H         -0.2340000  *   -8.074000  *    4.810000  *
    18       H          0.3710000  *   -4.781000  *    8.187000  *
    19       H          0.6160000  *   -2.362000  *    8.159000  *
    20       H          0.5780000  *   -1.101000  *    6.051000  *
    21       C          0.0930000  *   -2.096000  *    1.184000  *
    22       C          1.2770000  *   -1.843000  *    0.505000  *
    23       C          1.2510000  *   -1.139000  *   -0.689000  *
    24       H          2.2160000  *   -2.194000  *    0.906000  *
    25       C          0.0430000  *   -0.684000  *   -1.200000  *
    26       C         -1.1350000  *   -0.942000  *   -0.525000  *
    27       H          0.0230000  *   -0.136000  *   -2.130000  *
    28       C         -1.1130000  *   -1.643000  *    0.665000  *
    29       H         -2.0740000  *   -0.591000  *   -0.927000  *
    30       H         -2.0350000  *   -1.839000  *    1.192000  *
    31       O          2.4090000  *   -0.889000  *   -1.355000  *
    32       H          2.6510000  *   -1.574000  *   -1.993000  *
    33       N          0.0570000  *   -7.131000  *    7.273000  *
    34       O          0.5990000  *   -8.222000  *    7.309000  *
    35       O         -0.4680000  *   -6.678000  *    8.274000  *
 


          CARTESIAN COORDINATES 

    NO.       ATOM         X         Y         Z

     1         N        0.1150   -2.8070    2.3910
     2         C       -0.0250   -4.1450    2.3570
     3         O       -0.1670   -4.7120    1.2900
     4         C       -0.0060   -4.9260    3.6030
     5         C       -0.1460   -6.3060    3.6140
     6         C       -0.1230   -7.0000    4.8190
     7         C        0.0370   -6.3560    6.0120
     8         C        0.1600   -4.2430    4.8290
     9         C        0.1830   -4.9580    6.0440
    10         C        0.3510   -4.2500    7.2470
    11         C        0.4880   -2.8920    7.2270
    12         C        0.4670   -2.1750    6.0360
    13         C        0.3040   -2.8370    4.8280
    14         C        0.2800   -2.1260    3.5410
    15         O        0.4020   -0.9160    3.5150
    16         H       -0.2750   -6.8420    2.6860
    17         H       -0.2340   -8.0740    4.8100
    18         H        0.3710   -4.7810    8.1870
    19         H        0.6160   -2.3620    8.1590
    20         H        0.5780   -1.1010    6.0510
    21         C        0.0930   -2.0960    1.1840
    22         C        1.2770   -1.8430    0.5050
    23         C        1.2510   -1.1390   -0.6890
    24         H        2.2160   -2.1940    0.9060
    25         C        0.0430   -0.6840   -1.2000
    26         C       -1.1350   -0.9420   -0.5250
    27         H        0.0230   -0.1360   -2.1300
    28         C       -1.1130   -1.6430    0.6650
    29         H       -2.0740   -0.5910   -0.9270
    30         H       -2.0350   -1.8390    1.1920
    31         O        2.4090   -0.8890   -1.3550
    32         H        2.6510   -1.5740   -1.9930
    33         N        0.0570   -7.1310    7.2730
    34         O        0.5990   -8.2220    7.3090
    35         O       -0.4680   -6.6780    8.2740

 General Reference for PM6:
 "Optimization of Parameters for Semiempirical Methods V: Modification of NDDO Approximations
 and Application to 70 Elements", J. J. P. Stewart, J. Mol. Mod., 13, 1173-1213 (2007)
 URL: http://www.springerlink.com/content/ar33482301010477/fulltext.pdf

           Empirical Formula: C18 H10 N2 O5  =    35 atoms



      MOLECULAR POINT GROUP   :   C1  


      RHF CALCULATION, NO. OF DOUBLY OCCUPIED LEVELS =   61

      Geometry optimization using EF
  SCF CRITERION =    0.1000E-04

          DIAGONAL MATRIX USED AS START HESSIAN

 CYCLE:     1 TIME:   0.158 TIME LEFT: 16.53W  GRAD.:   198.403 HEAT:-45.77993
 CYCLE:     2 TIME:   0.088 TIME LEFT: 16.53W  GRAD.:   185.083 HEAT:-54.52493
 CYCLE:     3 TIME:   0.089 TIME LEFT: 16.53W  GRAD.:   208.114 HEAT:-55.45405
 CYCLE:     4 TIME:   0.084 TIME LEFT: 16.53W  GRAD.:   268.675 HEAT:-50.36982
 CYCLE:     5 TIME:   0.084 TIME LEFT: 16.53W  GRAD.:   276.676 HEAT:-48.05779
 CYCLE:     6 TIME:   0.089 TIME LEFT: 16.53W  GRAD.:   224.988 HEAT:-54.71512
 CYCLE:     7 TIME:   0.084 TIME LEFT: 16.53W  GRAD.:   256.358 HEAT:-49.91080
 CYCLE:     8 TIME:   0.085 TIME LEFT: 16.53W  GRAD.:   216.161 HEAT:-54.73508
 CYCLE:     9 TIME:   0.084 TIME LEFT: 16.53W  GRAD.:   280.259 HEAT:-49.29523
 CYCLE:    10 TIME:   0.084 TIME LEFT: 16.53W  GRAD.:   285.193 HEAT:-47.60141
 CYCLE:    11 TIME:   0.091 TIME LEFT: 16.53W  GRAD.:   214.111 HEAT:-55.71861
 CYCLE:    12 TIME:   0.085 TIME LEFT: 16.53W  GRAD.:   278.473 HEAT:-49.25060
 CYCLE:    13 TIME:   0.086 TIME LEFT: 16.53W  GRAD.:   243.647 HEAT:-51.86630
 CYCLE:    14 TIME:   0.092 TIME LEFT: 16.53W  GRAD.:   244.528 HEAT:-52.68040
 CYCLE:    15 TIME:   0.084 TIME LEFT: 16.53W  GRAD.:   254.281 HEAT:-50.36634
 CYCLE:    16 TIME:   0.091 TIME LEFT: 16.53W  GRAD.:   271.773 HEAT:-52.12403
 CYCLE:    17 TIME:   0.085 TIME LEFT: 16.53W  GRAD.:   318.702 HEAT:-47.41375
 CYCLE:    18 TIME:   0.089 TIME LEFT: 16.53W  GRAD.:   274.909 HEAT:-50.72948
 CYCLE:    19 TIME:   0.091 TIME LEFT: 16.53W  GRAD.:   262.384 HEAT:-51.70711
 CYCLE:    20 TIME:   0.083 TIME LEFT: 16.53W  GRAD.:   317.652 HEAT:-46.72219
 CYCLE:    21 TIME:   0.094 TIME LEFT: 16.53W  GRAD.:   230.009 HEAT:-54.28354
 CYCLE:    22 TIME:   0.084 TIME LEFT: 16.53W  GRAD.:   277.555 HEAT:-50.37881
 CYCLE:    23 TIME:   0.083 TIME LEFT: 16.53W  GRAD.:   264.188 HEAT:-51.32453
 CYCLE:    24 TIME:   0.083 TIME LEFT: 16.53W  GRAD.:   295.584 HEAT:-48.78244
 CYCLE:    25 TIME:   0.088 TIME LEFT: 16.53W  GRAD.:   258.550 HEAT:-52.94601
 CYCLE:    26 TIME:   0.093 TIME LEFT: 16.53W  GRAD.:   277.281 HEAT:-48.82228
 CYCLE:    27 TIME:   0.085 TIME LEFT: 16.53W  GRAD.:   271.926 HEAT:-51.74802
 CYCLE:    28 TIME:   0.089 TIME LEFT: 16.53W  GRAD.:   285.263 HEAT:-50.39428
 CYCLE:    29 TIME:   0.083 TIME LEFT: 16.53W  GRAD.:   299.034 HEAT:-49.19108
 CYCLE:    30 TIME:   0.088 TIME LEFT: 16.53W  GRAD.:   255.402 HEAT:-52.56351
 CYCLE:    31 TIME:   0.091 TIME LEFT: 16.53W  GRAD.:   236.698 HEAT:-52.31054
 CYCLE:    32 TIME:   0.083 TIME LEFT: 16.53W  GRAD.:   336.893 HEAT:-48.84143
 CYCLE:    33 TIME:   0.092 TIME LEFT: 16.53W  GRAD.:   214.942 HEAT:-54.24062
 CYCLE:    34 TIME:   0.090 TIME LEFT: 16.53W  GRAD.:   284.273 HEAT:-50.61477
 CYCLE:    35 TIME:   0.086 TIME LEFT: 16.53W  GRAD.:   300.793 HEAT:-46.33043
 CYCLE:    36 TIME:   0.092 TIME LEFT: 16.53W  GRAD.:   285.864 HEAT:-53.67294
 CYCLE:    37 TIME:   0.084 TIME LEFT: 16.53W  GRAD.:   260.704 HEAT:-50.56555
 CYCLE:    38 TIME:   0.084 TIME LEFT: 16.53W  GRAD.:   264.597 HEAT:-52.63465
 CYCLE:    39 TIME:   0.082 TIME LEFT: 16.53W  GRAD.:   291.089 HEAT:-49.59317
 CYCLE:    40 TIME:   0.093 TIME LEFT: 16.53W  GRAD.:   234.265 HEAT:-55.52519
 CYCLE:    41 TIME:   0.084 TIME LEFT: 16.53W  GRAD.:   309.078 HEAT:-47.03849
 CYCLE:    42 TIME:   0.087 TIME LEFT: 16.53W  GRAD.:   218.670 HEAT:-54.68683
 CYCLE:    43 TIME:   0.084 TIME LEFT: 16.53W  GRAD.:   356.891 HEAT:-48.01292
 CYCLE:    44 TIME:   0.095 TIME LEFT: 16.53W  GRAD.:   194.367 HEAT:-55.23639
 CYCLE:    45 TIME:   0.092 TIME LEFT: 16.53W  GRAD.:   256.237 HEAT:-54.37274
 CYCLE:    46 TIME:   0.084 TIME LEFT: 16.53W  GRAD.:   244.891 HEAT:-52.16315
 CYCLE:    47 TIME:   0.084 TIME LEFT: 16.53W  GRAD.:   293.473 HEAT:-52.38545
 CYCLE:    48 TIME:   0.095 TIME LEFT: 16.53W  GRAD.:   207.556 HEAT:-53.89639
 CYCLE:    49 TIME:   0.093 TIME LEFT: 16.53W  GRAD.:   210.443 HEAT:-56.94333
 CYCLE:    50 TIME:   0.082 TIME LEFT: 16.53W  GRAD.:   214.165 HEAT:-52.12235
 CYCLE:    51 TIME:   0.088 TIME LEFT: 16.53W  GRAD.:   215.167 HEAT:-57.64934
 CYCLE:    52 TIME:   0.083 TIME LEFT: 16.53W  GRAD.:   263.536 HEAT:-49.41141
 CYCLE:    53 TIME:   0.085 TIME LEFT: 16.53W  GRAD.:   246.074 HEAT:-53.59532
 CYCLE:    54 TIME:   0.091 TIME LEFT: 16.53W  GRAD.:   207.163 HEAT:-57.15389
 CYCLE:    55 TIME:   0.087 TIME LEFT: 16.53W  GRAD.:   137.100 HEAT:-60.93122
 CYCLE:    56 TIME:   0.084 TIME LEFT: 16.53W  GRAD.:   277.690 HEAT:-50.61832
 CYCLE:    57 TIME:   0.090 TIME LEFT: 16.53W  GRAD.:   109.293 HEAT:-62.49937
 CYCLE:    58 TIME:   0.083 TIME LEFT: 16.53W  GRAD.:   263.034 HEAT:-53.29180
 CYCLE:    59 TIME:   0.087 TIME LEFT: 16.53W  GRAD.:    36.629 HEAT:-66.63246
 CYCLE:    60 TIME:   0.083 TIME LEFT: 16.53W  GRAD.:   139.003 HEAT:-60.19347
 CYCLE:    61 TIME:   0.087 TIME LEFT: 16.53W  GRAD.:    48.992 HEAT:-66.27204
 CYCLE:    62 TIME:   0.083 TIME LEFT: 16.53W  GRAD.:   168.859 HEAT:-53.94341
 CYCLE:    63 TIME:   0.086 TIME LEFT: 16.53W  GRAD.:    33.262 HEAT:-66.76288
 CYCLE:    64 TIME:   0.082 TIME LEFT: 16.53W  GRAD.:   140.823 HEAT:-58.88408
 CYCLE:    65 TIME:   0.094 TIME LEFT: 16.53W  GRAD.:    34.437 HEAT:-66.75118
 CYCLE:    66 TIME:   0.081 TIME LEFT: 16.53W  GRAD.:   132.760 HEAT:-59.31629
 CYCLE:    67 TIME:   0.091 TIME LEFT: 16.53W  GRAD.:    25.756 HEAT:-67.03813
 CYCLE:    68 TIME:   0.083 TIME LEFT: 16.53W  GRAD.:   122.551 HEAT:-61.28258
 CYCLE:    69 TIME:   0.090 TIME LEFT: 16.53W  GRAD.:     9.975 HEAT:-67.25960
 CYCLE:    70 TIME:   0.080 TIME LEFT: 16.53W  GRAD.:    25.931 HEAT:-66.94300
 CYCLE:    71 TIME:   0.083 TIME LEFT: 16.53W  GRAD.:     4.884 HEAT:-67.35664
 CYCLE:    72 TIME:   0.076 TIME LEFT: 16.53W  GRAD.:    10.136 HEAT:-67.39127
 CYCLE:    73 TIME:   0.078 TIME LEFT: 16.53W  GRAD.:     8.399 HEAT:-67.59992
 CYCLE:    74 TIME:   0.084 TIME LEFT: 16.53W  GRAD.:   132.465 HEAT:-59.47404
 CYCLE:    75 TIME:   0.085 TIME LEFT: 16.53W  GRAD.:    15.739 HEAT:-67.77437
 CYCLE:    76 TIME:   0.078 TIME LEFT: 16.53W  GRAD.:    19.440 HEAT:-67.70323
 CYCLE:    77 TIME:   0.078 TIME LEFT: 16.53W  GRAD.:     9.075 HEAT:-68.21989
 CYCLE:    78 TIME:   0.082 TIME LEFT: 16.53W  GRAD.:    27.690 HEAT:-68.70582
 CYCLE:    79 TIME:   0.082 TIME LEFT: 16.53W  GRAD.:    52.429 HEAT:-68.36362
 CYCLE:    80 TIME:   0.080 TIME LEFT: 16.53W  GRAD.:    18.820 HEAT:-69.27350
 CYCLE:    81 TIME:   0.080 TIME LEFT: 16.53W  GRAD.:    16.908 HEAT:-69.65661
 CYCLE:    82 TIME:   0.082 TIME LEFT: 16.53W  GRAD.:    18.690 HEAT:-70.07711
 CYCLE:    83 TIME:   0.083 TIME LEFT: 16.53W  GRAD.:    24.346 HEAT:-70.34304
 CYCLE:    84 TIME:   0.078 TIME LEFT: 16.53W  GRAD.:    21.848 HEAT:-70.39907
 CYCLE:    85 TIME:   0.078 TIME LEFT: 16.53W  GRAD.:    25.423 HEAT:-70.20747
 CYCLE:    86 TIME:   0.079 TIME LEFT: 16.53W  GRAD.:    10.013 HEAT:-70.63836
 CYCLE:    87 TIME:   0.078 TIME LEFT: 16.53W  GRAD.:    10.183 HEAT:-70.71217
 CYCLE:    88 TIME:   0.075 TIME LEFT: 16.53W  GRAD.:     4.767 HEAT:-70.78422
 CYCLE:    89 TIME:   0.075 TIME LEFT: 16.53W  GRAD.:     4.754 HEAT:-70.84785
 CYCLE:    90 TIME:   0.076 TIME LEFT: 16.53W  GRAD.:     2.433 HEAT:-70.85426
 CYCLE:    91 TIME:   0.078 TIME LEFT: 16.53W  GRAD.:     3.615 HEAT:-70.85400
 CYCLE:    92 TIME:   0.075 TIME LEFT: 16.53W  GRAD.:     2.044 HEAT:-70.87202
 CYCLE:    93 TIME:   0.076 TIME LEFT: 16.53W  GRAD.:     1.482 HEAT:-70.87533
 CYCLE:    94 TIME:   0.081 TIME LEFT: 16.53W  GRAD.:     1.740 HEAT:-70.87769
 CYCLE:    95 TIME:   0.077 TIME LEFT: 16.53W  GRAD.:     1.613 HEAT:-70.87905
 CYCLE:    96 TIME:   0.080 TIME LEFT: 16.53W  GRAD.:     0.909 HEAT:-70.87922
 CYCLE:    97 TIME:   0.078 TIME LEFT: 16.53W  GRAD.:     0.553 HEAT:-70.88122
 CYCLE:    98 TIME:   0.075 TIME LEFT: 16.53W  GRAD.:     0.452 HEAT:-70.88041
 CYCLE:    99 TIME:   0.079 TIME LEFT: 16.53W  GRAD.:     0.525 HEAT:-70.87953
 CYCLE:   100 TIME:   0.078 TIME LEFT: 16.53W  GRAD.:     0.520 HEAT:-70.87875
 CYCLE:   101 TIME:   0.076 TIME LEFT: 16.53W  GRAD.:     0.415 HEAT:-70.88032
 CYCLE:   102 TIME:   0.075 TIME LEFT: 16.53W  GRAD.:     0.433 HEAT:-70.88183
 CYCLE:   103 TIME:   0.078 TIME LEFT: 16.53W  GRAD.:     0.408 HEAT:-70.88123
 CYCLE:   104 TIME:   0.078 TIME LEFT: 16.53W  GRAD.:     0.561 HEAT:-70.88218
 CYCLE:   105 TIME:   0.078 TIME LEFT: 16.53W  GRAD.:     0.575 HEAT:-70.88622
 CYCLE:   106 TIME:   0.079 TIME LEFT: 16.53W  GRAD.:     0.448 HEAT:-70.88919
 CYCLE:   107 TIME:   0.079 TIME LEFT: 16.53W  GRAD.:     0.417 HEAT:-70.89154
 CYCLE:   108 TIME:   0.076 TIME LEFT: 16.53W  GRAD.:     0.285 HEAT:-70.89053
 CYCLE:   109 TIME:   0.076 TIME LEFT: 16.53W  GRAD.:     0.262 HEAT:-70.89095
 CYCLE:   110 TIME:   0.075 TIME LEFT: 16.53W  GRAD.:     0.211 HEAT:-70.89135
 CYCLE:   111 TIME:   0.078 TIME LEFT: 16.53W  GRAD.:     0.278 HEAT:-70.89276
 CYCLE:   112 TIME:   0.078 TIME LEFT: 16.53W  GRAD.:     0.395 HEAT:-70.89346
 CYCLE:   113 TIME:   0.078 TIME LEFT: 16.53W  GRAD.:     0.414 HEAT:-70.89402
 CYCLE:   114 TIME:   0.079 TIME LEFT: 16.53W  GRAD.:     0.520 HEAT:-70.89073
 CYCLE:   115 TIME:   0.078 TIME LEFT: 16.53W  GRAD.:     0.608 HEAT:-70.89530
 CYCLE:   116 TIME:   0.075 TIME LEFT: 16.53W  GRAD.:     0.411 HEAT:-70.88948
 CYCLE:   117 TIME:   0.079 TIME LEFT: 16.53W  GRAD.:     0.358 HEAT:-70.89054
 CYCLE:   118 TIME:   0.078 TIME LEFT: 16.53W  GRAD.:     0.346 HEAT:-70.89120
 CYCLE:   119 TIME:   0.078 TIME LEFT: 16.53W  GRAD.:     0.347 HEAT:-70.89194
 CYCLE:   120 TIME:   0.079 TIME LEFT: 16.53W  GRAD.:     0.365 HEAT:-70.89951
 CYCLE:   121 TIME:   0.080 TIME LEFT: 16.53W  GRAD.:     0.433 HEAT:-70.91522
 CYCLE:   122 TIME:   0.079 TIME LEFT: 16.53W  GRAD.:     0.357 HEAT:-70.91470
 CYCLE:   123 TIME:   0.077 TIME LEFT: 16.53W  GRAD.:     0.410 HEAT:-70.91543
 CYCLE:   124 TIME:   0.076 TIME LEFT: 16.53W  GRAD.:     0.286 HEAT:-70.91516
 CYCLE:   125 TIME:   0.078 TIME LEFT: 16.53W  GRAD.:     0.285 HEAT:-70.91177
 CYCLE:   126 TIME:   0.075 TIME LEFT: 16.53W  GRAD.:     0.312 HEAT:-70.91978
 CYCLE:   127 TIME:   0.078 TIME LEFT: 16.53W  GRAD.:     0.174 HEAT:-70.91944
 CYCLE:   128 TIME:   0.078 TIME LEFT: 16.53W  GRAD.:     0.169 HEAT:-70.90991
 CYCLE:   129 TIME:   0.077 TIME LEFT: 16.53W  GRAD.:     0.208 HEAT:-70.91026
 CYCLE:   130 TIME:   0.076 TIME LEFT: 16.53W  GRAD.:     0.242 HEAT:-70.90971
 CYCLE:   131 TIME:   0.077 TIME LEFT: 16.53W  GRAD.:     0.276 HEAT:-70.90946
 CYCLE:   132 TIME:   0.078 TIME LEFT: 16.53W  GRAD.:     0.273 HEAT:-70.90913
 CYCLE:   133 TIME:   0.078 TIME LEFT: 16.53W  GRAD.:     0.210 HEAT:-70.90798
 CYCLE:   134 TIME:   0.078 TIME LEFT: 16.53W  GRAD.:     0.223 HEAT:-70.90806
 CYCLE:   135 TIME:   0.079 TIME LEFT: 16.53W  GRAD.:     0.256 HEAT:-70.89924
 CYCLE:   136 TIME:   0.077 TIME LEFT: 16.53W  GRAD.:     0.508 HEAT:-70.96048
 CYCLE:   137 TIME:   0.078 TIME LEFT: 16.53W  GRAD.:     0.378 HEAT:-70.96677
 CYCLE:   138 TIME:   0.077 TIME LEFT: 16.53W  GRAD.:     0.459 HEAT:-70.96446
 CYCLE:   139 TIME:   0.081 TIME LEFT: 16.53W  GRAD.:     0.791 HEAT:-70.95086
 CYCLE:   140 TIME:   0.077 TIME LEFT: 16.53W  GRAD.:     0.139 HEAT:-70.96294

     RMS GRADIENT =  0.13944  IS LESS THAN CUTOFF =  0.15000



 -------------------------------------------------------------------------------
 PM6 T=31535772 DUMP=4320 XYZ EPS=78.40 RSOLV=1.30 MULLIK SYBYL +
 CHARGE=-0 RELSCF=0.1 LET DDMIN=0.0 GNORM=0.15
 SJ000001185-1_T001S001I001C01: Geometry optimization step



     GEOMETRY OPTIMISED USING EIGENVECTOR FOLLOWING (EF).     
     SCF FIELD WAS ACHIEVED                                   


                               PM6     CALCULATION
                                                       MOPAC2009 (Version: 9.015L)
                                                       Tue Sep  6 16:24:52 2011




          FINAL HEAT OF FORMATION =        -70.96294 KCAL =    -296.90894 KJ
          VAN DER WAALS AREA      =        315.71 SQUARE ANGSTROMS


          TOTAL ENERGY            =      -4153.36737 EV
          ELECTRONIC ENERGY       =      -6242.18418 EV  POINT GROUP:     C1  
          CORE-CORE REPULSION     =       2088.81681 EV
          DIELECTRIC ENERGY       =         -1.06535 EV
          COSMO AREA              =        315.71 SQUARE ANGSTROMS
          COSMO VOLUME            =        354.67 CUBIC ANGSTROMS

          IONIZATION POTENTIAL    =          9.551026 EV
          HOMO LUMO ENERGIES (EV) =         -9.551 -2.426
          NO. OF FILLED LEVELS    =         61
          MOLECULAR WEIGHT        =        334.287

          MOLECULAR DIMENSIONS (Angstroms)

            Atom       Atom       Distance
            H    27    O    35    12.44239
            H    19    H    16     6.91424
            H    29    H    32     5.34163


          SCF CALCULATIONS        =        142
          COMPUTATION TIME        =         11.701 SECONDS




   ATOM   CHEMICAL          X               Y              Z
  NUMBER   SYMBOL      (ANGSTROMS)     (ANGSTROMS)    (ANGSTROMS)
 
     1       N          0.1020566  *   -2.810743  *    2.390924  *
     2       C         -0.0438226  *   -4.229308  *    2.337971  *
     3       O         -0.1902500  *   -4.774461  *    1.257631  *
     4       C         -0.0070058  *   -4.958182  *    3.634707  *
     5       C         -0.1369885  *   -6.331204  *    3.627461  *
     6       C         -0.1068718  *   -7.054507  *    4.849800  *
     7       C          0.0461841  *   -6.377086  *    6.041505  *
     8       C          0.1624294  *   -4.243809  *    4.863474  *
     9       C          0.1915540  *   -4.951000  *    6.097134  *
    10       C          0.3749968  *   -4.210124  *    7.309477  *
    11       C          0.5071063  *   -2.843937  *    7.285565  *
    12       C          0.4697874  *   -2.134511  *    6.056113  *
    13       C          0.3035507  *   -2.820368  *    4.866150  *
    14       C          0.2770172  *   -2.058405  *    3.599567  *
    15       O          0.3925712  *   -0.847152  *    3.520179  *
    16       H         -0.2649627  *   -6.884679  *    2.685446  *
    17       H         -0.2130175  *   -8.149726  *    4.820039  *
    18       H          0.4078665  *   -4.744026  *    8.268490  *
    19       H          0.6448018  *   -2.280175  *    8.215584  *
    20       H          0.5764790  *   -1.041284  *    6.062792  *
    21       C          0.0812160  *   -2.071477  *    1.121914  *
    22       C          1.2863459  *   -1.880683  *    0.436897  *
    23       C          1.2309138  *   -1.168031  *   -0.768695  *
    24       H          2.2293942  *   -2.267795  *    0.821549  *
    25       C          0.0252943  *   -0.658199  *   -1.286149  *
    26       C         -1.1493356  *   -0.873332  *   -0.570590  *
    27       H          0.0258861  *   -0.109033  *   -2.227337  *
    28       C         -1.1364440  *   -1.581599  *    0.639775  *
    29       H         -2.0975854  *   -0.485743  *   -0.955655  *
    30       H         -2.0631466  *   -1.743409  *    1.190568  *
    31       O          2.3454777  *   -0.920061  *   -1.521175  *
    32       H          3.1793181  *   -1.306785  *   -1.110984  *
    33       N          0.0524797  *   -7.191293  *    7.281575  *
    34       O          0.5536231  *   -8.305329  *    7.225165  *
    35       O         -0.4489455  *   -6.730742  *    8.295999  *

           Empirical Formula: C18 H10 N2 O5  =    35 atoms



      MOLECULAR POINT GROUP   :   C1  


                  EIGENVALUES  
 -35.76579 -33.75168 -32.76480 -32.70848 -31.62564 -31.32980 -31.17172 -30.25397
 -30.13355 -28.80122 -27.23171 -26.85154 -26.33109 -26.05468 -25.37439 -24.11393
 -23.25802 -22.87425 -22.40951 -22.34086 -21.43439 -20.12293 -19.60645 -19.14215
 -18.81433 -18.64021 -18.46928 -17.99366 -17.63409 -17.28079 -16.91159 -16.67943
 -16.27612 -15.99174 -15.79907 -15.59558 -15.44677 -15.30597 -15.03201 -14.93365
 -14.81328 -14.54254 -14.49560 -14.18930 -13.52424 -13.21905 -12.99515 -12.96190
 -12.88723 -12.69921 -12.58962 -12.25484 -12.11530 -11.84295 -11.75811 -11.50317
 -11.21667 -10.37301 -10.36396 -10.20396  -9.55103  -2.42573  -1.22498  -0.99857
  -0.57387  -0.46849  -0.39903  -0.22184  -0.15894   0.14631   0.76521   0.93154
   1.84021   1.88342   2.01544   2.06848   2.21524   2.39832   2.69924   2.78771
   2.93328   3.08436   3.31516   3.48329   3.50796   3.67444   3.71765   3.76338
   3.81579   3.83600   3.94902   4.02565   4.13583   4.18821   4.33001   4.38739
   4.42314   4.61834   4.65231   5.01351   5.03438   5.13508   5.21055   5.27012
   5.38406   5.57363   5.61498   5.84132   5.92332   5.98677


              NET ATOMIC CHARGES AND DIPOLE CONTRIBUTIONS

  ATOM NO.   TYPE          CHARGE      No. of ELECS.   s-Pop       p-Pop       
    1          N          -0.509166        5.5092     1.54878     3.96038
    2          C           0.672014        3.3280     1.07094     2.25704
    3          O          -0.557328        6.5573     1.85279     4.70454
    4          C          -0.203469        4.2035     1.10890     3.09457
    5          C          -0.012201        4.0122     1.11776     2.89444
    6          C          -0.096533        4.0965     1.11982     2.97671
    7          C          -0.098589        4.0986     1.11852     2.98007
    8          C           0.130273        3.8697     1.07783     2.79190
    9          C          -0.027346        4.0273     1.08340     2.94394
   10          C          -0.062574        4.0626     1.11838     2.94420
   11          C          -0.195662        4.1957     1.11426     3.08140
   12          C           0.046976        3.9530     1.12069     2.83233
   13          C          -0.278376        4.2784     1.10052     3.17786
   14          C           0.685561        3.3144     1.07110     2.24334
   15          O          -0.565654        6.5657     1.85267     4.71299
   16          H           0.199105        0.8009     0.80089
   17          H           0.209621        0.7904     0.79038
   18          H           0.187978        0.8120     0.81202
   19          H           0.194062        0.8059     0.80594
   20          H           0.183518        0.8165     0.81648
   21          C           0.328838        3.6712     1.06897     2.60219
   22          C          -0.435849        4.4358     1.11785     3.31800
   23          C           0.380548        3.6195     1.07748     2.54197
   24          H           0.209276        0.7907     0.79072
   25          C          -0.346943        4.3469     1.10966     3.23728
   26          C           0.011559        3.9884     1.10683     2.88162
   27          H           0.196123        0.8039     0.80388
   28          C          -0.332217        4.3322     1.11305     3.21916
   29          H           0.164187        0.8358     0.83581
   30          H           0.192413        0.8076     0.80759
   31          O          -0.510062        6.5101     1.80694     4.70312
   32          H           0.374558        0.6254     0.62544
   33          N           0.850949        4.1491     1.30460     2.84445
   34          O          -0.493493        6.4935     1.91912     4.57437
   35          O          -0.492100        6.4921     1.91854     4.57356
 DIPOLE           X         Y         Z       TOTAL
 POINT-CHG.     0.237    -0.028     2.067     2.080
 HYBRID         0.633    -0.287     0.053     0.697
 SUM            0.870    -0.315     2.120     2.313


          CARTESIAN COORDINATES 

    NO.       ATOM               X         Y         Z

     1         N                  0.1021   -2.8107    2.3909
     2         C                 -0.0438   -4.2293    2.3380
     3         O                 -0.1902   -4.7745    1.2576
     4         C                 -0.0070   -4.9582    3.6347
     5         C                 -0.1370   -6.3312    3.6275
     6         C                 -0.1069   -7.0545    4.8498
     7         C                  0.0462   -6.3771    6.0415
     8         C                  0.1624   -4.2438    4.8635
     9         C                  0.1916   -4.9510    6.0971
    10         C                  0.3750   -4.2101    7.3095
    11         C                  0.5071   -2.8439    7.2856
    12         C                  0.4698   -2.1345    6.0561
    13         C                  0.3036   -2.8204    4.8662
    14         C                  0.2770   -2.0584    3.5996
    15         O                  0.3926   -0.8472    3.5202
    16         H                 -0.2650   -6.8847    2.6854
    17         H                 -0.2130   -8.1497    4.8200
    18         H                  0.4079   -4.7440    8.2685
    19         H                  0.6448   -2.2802    8.2156
    20         H                  0.5765   -1.0413    6.0628
    21         C                  0.0812   -2.0715    1.1219
    22         C                  1.2863   -1.8807    0.4369
    23         C                  1.2309   -1.1680   -0.7687
    24         H                  2.2294   -2.2678    0.8215
    25         C                  0.0253   -0.6582   -1.2861
    26         C                 -1.1493   -0.8733   -0.5706
    27         H                  0.0259   -0.1090   -2.2273
    28         C                 -1.1364   -1.5816    0.6398
    29         H                 -2.0976   -0.4857   -0.9557
    30         H                 -2.0631   -1.7434    1.1906
    31         O                  2.3455   -0.9201   -1.5212
    32         H                  3.1793   -1.3068   -1.1110
    33         N                  0.0525   -7.1913    7.2816
    34         O                  0.5536   -8.3053    7.2252
    35         O                 -0.4489   -6.7307    8.2960


          ATOMIC ORBITAL ELECTRON POPULATIONS

   1.54878   1.65861   1.15010   1.15168   1.07094   0.65947   0.76233   0.83524
   1.85279   1.55112   1.72995   1.42346   1.10890   1.09624   1.00755   0.99077
   1.11776   0.87275   0.96980   1.05189   1.11982   0.93024   1.09704   0.94943
   1.11852   1.08999   0.96852   0.92156   1.07783   0.92946   0.92968   0.93276
   1.08340   1.03460   0.92681   0.98254   1.11838   0.90826   0.99747   1.03847
   1.11426   1.01236   1.00641   1.06263   1.12069   0.81944   1.07295   0.93994
   1.10052   1.17767   0.99676   1.00343   1.07110   0.65219   0.79047   0.80067
   1.85267   1.55966   1.30297   1.85035   0.80089   0.79038   0.81202   0.80594
   0.81648   1.06897   0.92968   0.87390   0.79861   1.11785   1.09913   1.15637
   1.06251   1.07748   0.81353   0.87156   0.85688   0.79072   1.10966   0.98326
   1.13454   1.11948   1.10683   1.03093   0.91243   0.93826   0.80388   1.11305
   1.06980   1.09227   1.05710   0.83581   0.80759   1.80694   1.31774   1.78729
   1.59809   0.62544   1.30460   0.91662   0.95008   0.97776   1.91912   1.49883
   1.19244   1.88310   1.91854   1.49892   1.73478   1.33986

           MULLIKEN POPULATION ANALYSIS



        MULLIKEN POPULATIONS AND CHARGES

      NO.  ATOM   POPULATION      CHARGE
        1    N     5.646579     -0.646579
        2    C     3.254274      0.745726
        3    O     6.579618     -0.579618
        4    C     4.233003     -0.233003
        5    C     4.052718     -0.052718
        6    C     4.144088     -0.144088
        7    C     4.095839     -0.095839
        8    C     3.847584      0.152416
        9    C     4.028118     -0.028118
       10    C     4.107699     -0.107699
       11    C     4.255651     -0.255651
       12    C     3.988554      0.011446
       13    C     4.309334     -0.309334
       14    C     3.240627      0.759373
       15    O     6.588584     -0.588584
       16    H     0.742264      0.257736
       17    H     0.729275      0.270725
       18    H     0.755627      0.244373
       19    H     0.747930      0.252070
       20    H     0.761425      0.238575
       21    C     3.622410      0.377590
       22    C     4.508840     -0.508840
       23    C     3.601076      0.398924
       24    H     0.728173      0.271827
       25    C     4.411641     -0.411641
       26    C     4.024413     -0.024413
       27    H     0.744369      0.255631
       28    C     4.396312     -0.396312
       29    H     0.785330      0.214670
       30    H     0.749167      0.250833
       31    O     6.558561     -0.558561
       32    H     0.592962      0.407038
       33    N     4.200051      0.799949
       34    O     6.484449     -0.484449
       35    O     6.483455     -0.483455



 TOTAL CPU TIME:            11.72 SECONDS

 == MOPAC DONE ==
 *******************************************************************************
 ** Site#:  958            For non-commercial use only         Version 9.015L **
 *******************************************************************************
 ** Cite this work as: MOPAC2009, James J. P. Stewart, Stewart Computational  **
 ** Chemistry, Version 9.015L web: HTTP://OpenMOPAC.net                       **
 *******************************************************************************
 **                                                                           **
 **                                MOPAC2009                                  **
 **                                                                           **
 *******************************************************************************

                            PM6 CALCULATION RESULTS


 *******************************************************************************
 *  CALCULATION DONE:                                Tue Sep  6 16:24:52 2011  *
 *  PM6      - The PM6 Hamiltonian to be used
 *  GEO-OK   - OVERRIDE INTERATOMIC DISTANCE CHECK
 *
 *
 *
 *                 CHARGE ON SYSTEM =     0
 *
 *
 *
 *  EPS= 78.400
 *  RSOLV=  1.300
 *  OLDGEO   - PREVIOUS GEOMETRY TO BE USED
 *  T=       - A TIME OF 172800.0 SECONDS REQUESTED
 *  DUMP=N   - RESTART FILE WRITTEN EVERY  4320.000 SECONDS
 *  RELSCF   - DEFAULT SCF CRITERION MULTIPLIED BY   0.100    
 *             (DEFAULT SCFCRT= 0.00010)
 *  THERMO   - THERMODYNAMIC QUANTITIES TO BE CALCULATED
 *******************************************************************************
 PM6 DUMP=4320 RELSCF=0.1 THERMO EPS=78.40 RSOLV=1.30 +
 OLDGEO GEO-OK CHARGE=-0
 SJ000001185-1_T001S001I001C01: Free energy calculation

   ATOM   CHEMICAL          X               Y              Z
  NUMBER   SYMBOL      (ANGSTROMS)     (ANGSTROMS)    (ANGSTROMS)
 
     1       N          0.1020566  *   -2.810743  *    2.390924  *
     2       C         -0.0438226  *   -4.229308  *    2.337971  *
     3       O         -0.1902500  *   -4.774461  *    1.257631  *
     4       C         -0.0070058  *   -4.958182  *    3.634707  *
     5       C         -0.1369885  *   -6.331204  *    3.627461  *
     6       C         -0.1068718  *   -7.054507  *    4.849800  *
     7       C          0.0461841  *   -6.377086  *    6.041505  *
     8       C          0.1624294  *   -4.243809  *    4.863474  *
     9       C          0.1915540  *   -4.951000  *    6.097134  *
    10       C          0.3749968  *   -4.210124  *    7.309477  *
    11       C          0.5071063  *   -2.843937  *    7.285565  *
    12       C          0.4697874  *   -2.134511  *    6.056113  *
    13       C          0.3035507  *   -2.820368  *    4.866150  *
    14       C          0.2770172  *   -2.058405  *    3.599567  *
    15       O          0.3925712  *   -0.847152  *    3.520179  *
    16       H         -0.2649627  *   -6.884679  *    2.685446  *
    17       H         -0.2130175  *   -8.149726  *    4.820039  *
    18       H          0.4078665  *   -4.744026  *    8.268490  *
    19       H          0.6448018  *   -2.280175  *    8.215584  *
    20       H          0.5764790  *   -1.041284  *    6.062792  *
    21       C          0.0812160  *   -2.071477  *    1.121914  *
    22       C          1.2863459  *   -1.880683  *    0.436897  *
    23       C          1.2309138  *   -1.168031  *   -0.768695  *
    24       H          2.2293942  *   -2.267795  *    0.821549  *
    25       C          0.0252943  *   -0.658199  *   -1.286149  *
    26       C         -1.1493356  *   -0.873332  *   -0.570590  *
    27       H          0.0258861  *   -0.109033  *   -2.227337  *
    28       C         -1.1364440  *   -1.581599  *    0.639775  *
    29       H         -2.0975854  *   -0.485743  *   -0.955655  *
    30       H         -2.0631466  *   -1.743409  *    1.190568  *
    31       O          2.3454777  *   -0.920061  *   -1.521175  *
    32       H          3.1793181  *   -1.306785  *   -1.110984  *
    33       N          0.0524797  *   -7.191293  *    7.281575  *
    34       O          0.5536231  *   -8.305329  *    7.225165  *
    35       O         -0.4489455  *   -6.730742  *    8.295999  *
 


          CARTESIAN COORDINATES 

    NO.       ATOM         X         Y         Z

     1         N        0.1021   -2.8107    2.3909
     2         C       -0.0438   -4.2293    2.3380
     3         O       -0.1902   -4.7745    1.2576
     4         C       -0.0070   -4.9582    3.6347
     5         C       -0.1370   -6.3312    3.6275
     6         C       -0.1069   -7.0545    4.8498
     7         C        0.0462   -6.3771    6.0415
     8         C        0.1624   -4.2438    4.8635
     9         C        0.1916   -4.9510    6.0971
    10         C        0.3750   -4.2101    7.3095
    11         C        0.5071   -2.8439    7.2856
    12         C        0.4698   -2.1345    6.0561
    13         C        0.3036   -2.8204    4.8662
    14         C        0.2770   -2.0584    3.5996
    15         O        0.3926   -0.8472    3.5202
    16         H       -0.2650   -6.8847    2.6854
    17         H       -0.2130   -8.1497    4.8200
    18         H        0.4079   -4.7440    8.2685
    19         H        0.6448   -2.2802    8.2156
    20         H        0.5765   -1.0413    6.0628
    21         C        0.0812   -2.0715    1.1219
    22         C        1.2863   -1.8807    0.4369
    23         C        1.2309   -1.1680   -0.7687
    24         H        2.2294   -2.2678    0.8215
    25         C        0.0253   -0.6582   -1.2861
    26         C       -1.1493   -0.8733   -0.5706
    27         H        0.0259   -0.1090   -2.2273
    28         C       -1.1364   -1.5816    0.6398
    29         H       -2.0976   -0.4857   -0.9557
    30         H       -2.0631   -1.7434    1.1906
    31         O        2.3455   -0.9201   -1.5212
    32         H        3.1793   -1.3068   -1.1110
    33         N        0.0525   -7.1913    7.2816
    34         O        0.5536   -8.3053    7.2252
    35         O       -0.4489   -6.7307    8.2960

 General Reference for PM6:
 "Optimization of Parameters for Semiempirical Methods V: Modification of NDDO Approximations
 and Application to 70 Elements", J. J. P. Stewart, J. Mol. Mod., 13, 1173-1213 (2007)
 URL: http://www.springerlink.com/content/ar33482301010477/fulltext.pdf

           Empirical Formula: C18 H10 N2 O5  =    35 atoms



      MOLECULAR POINT GROUP   :   C1  


      RHF CALCULATION, NO. OF DOUBLY OCCUPIED LEVELS =   61

  SCF CRITERION =    0.1000E-04


          HEAT OF FORMATION =     -70.962795 KCALS/MOLE


          INTERNAL COORDINATE DERIVATIVES

   NUMBER  ATOM       BOND         ANGLE      DIHEDRAL

     1       N
     2       C     -0.006772
     3       O     -0.004510     0.002069
     4       C      0.138464    -0.004013    -0.005330
     5       C     -0.096668    -0.095835    -0.012110
     6       C      0.012902     0.125298    -0.013041
     7       C      0.027742    -0.030673    -0.003359
     8       C      0.087848     0.079953    -0.006907
     9       C     -0.153651     0.018275    -0.011967
    10       C     -0.080073    -0.080310     0.009794
    11       C      0.137275     0.062207     0.013878
    12       C     -0.083647    -0.091817     0.007508
    13       C     -0.053312     0.009253    -0.009581
    14       C      0.069175     0.030426     0.002880
    15       O     -0.099963     0.020882     0.002490
    16       H      0.035424    -0.056412    -0.016418
    17       H     -0.005104     0.011501     0.002858
    18       H     -0.026132    -0.026528     0.029649
    19       H      0.005228     0.008739    -0.001466
    20       H      0.025386     0.023109     0.014648
    21       C     -0.018734    -0.032702    -0.025527
    22       C      0.005819     0.011760    -0.051418
    23       C      0.003284     0.034349    -0.004241
    24       H     -0.026530    -0.043879    -0.045805
    25       C      0.014806    -0.007732     0.043421
    26       C      0.020727     0.011739     0.028272
    27       H     -0.004208    -0.008880     0.035423
    28       C     -0.055099    -0.012010    -0.019934
    29       H      0.007409     0.018890    -0.000184
    30       H      0.036970     0.019092     0.020047
    31       O     -0.002327     0.005067     0.007653
    32       H      0.002617     0.012758    -0.013273
    33       N     -0.050441    -0.001210    -0.076615
    34       O      0.080401     0.028970     0.067763
    35       O      0.111993    -0.026247     0.177830


          GRADIENT NORM =   0.53224


          TIME FOR SCF CALCULATION =    0.14

          TIME FOR DERIVATIVES     =    0.05

          MOLECULAR WEIGHT =  334.29



          ROTATIONAL CONSTANTS IN CM(-1)

          A =    0.01947516   B =    0.00380785   C =    0.00341298



           PRINCIPAL MOMENTS OF INERTIA IN UNITS OF 10**(-40)*GRAM-CM**2

          A =     1437.3580   B =     7351.3345   C =     8201.8489


          ORIENTATION OF MOLECULE IN FORCE CALCULATION

    NO.       ATOM         X         Y         Z

     1          N      -0.8394    1.2037   -0.1141
     2          C       0.5876    1.2037   -0.1141
     3          O       1.1846    2.2664   -0.1141
     4          C       1.2603   -0.1236   -0.1152
     5          C       2.6387   -0.1683   -0.1078
     6          C       3.3093   -1.4207   -0.1098
     7          C       2.5760   -2.5889   -0.1257
     8          C       0.4872   -1.3283   -0.1216
     9          C       1.1415   -2.5912   -0.1272
    10          C       0.3413   -3.7794   -0.1210
    11          C      -1.0294   -3.7041   -0.1229
    12          C      -1.6852   -2.4447   -0.1261
    13          C      -0.9423   -1.2776   -0.1226
    14          C      -1.6500    0.0203   -0.1171
    15          O      -2.8629    0.1451   -0.1155
    16          H       3.2370    0.7548   -0.1004
    17          H       4.4100   -1.4323   -0.1043
    18          H       0.8331   -4.7612   -0.1167
    19          H      -1.6384   -4.6156   -0.1207
    20          H      -2.7831   -2.4103   -0.1289
    21          C      -1.5251    2.5025   -0.1005
    22          C      -1.8125    3.0964    1.1334
    23          C      -2.4705    4.3337    1.1099
    24          H      -1.5384    2.6200    2.0742
    25          C      -2.8349    4.9690   -0.0921
    26          C      -2.5275    4.3411   -1.2960
    27          H      -3.3459    5.9311   -0.0662
    28          C      -1.8697    3.1027   -1.3155
    29          H      -2.8016    4.8183   -2.2419
    30          H      -1.6345    2.6214   -2.2649
    31          O      -2.8030    5.0047    2.2541
    32          H      -2.5191    4.5117    3.0844
    33          N       3.3388   -3.8611   -0.1438
    34          O       4.3970   -3.8959    0.4679
    35          O       2.8946   -4.8100   -0.7722


    FIRST DERIVATIVES WILL BE USED IN THE CALCULATION OF SECOND DERIVATIVES

          ESTIMATED TIME TO COMPLETE CALCULATION =       41.78 SECONDS

    FOR POINT-GROUP C1   THERE ARE   1 UNIQUE SYMMETRY FUNCTIONS.

 STEP:   1 TIME =     0.16 SECS, INTEGRAL =      0.16 TIME LEFT: 172799.64
 STEP:   2 TIME =     0.15 SECS, INTEGRAL =      0.31 TIME LEFT: 172799.49
 STEP:   3 TIME =     0.16 SECS, INTEGRAL =      0.46 TIME LEFT: 172799.34
 STEP:   4 TIME =     0.18 SECS, INTEGRAL =      0.64 TIME LEFT: 172799.16
 STEP:   5 TIME =     0.16 SECS, INTEGRAL =      0.80 TIME LEFT: 172799.00
 STEP:   6 TIME =     0.16 SECS, INTEGRAL =      0.97 TIME LEFT: 172798.84
 STEP:   7 TIME =     0.16 SECS, INTEGRAL =      1.13 TIME LEFT: 172798.67
 STEP:   8 TIME =     0.15 SECS, INTEGRAL =      1.28 TIME LEFT: 172798.52
 STEP:   9 TIME =     0.15 SECS, INTEGRAL =      1.43 TIME LEFT: 172798.37
 STEP:  10 TIME =     0.16 SECS, INTEGRAL =      1.59 TIME LEFT: 172798.21
 STEP:  11 TIME =     0.16 SECS, INTEGRAL =      1.75 TIME LEFT: 172798.05
 STEP:  12 TIME =     0.15 SECS, INTEGRAL =      1.90 TIME LEFT: 172797.90
 STEP:  13 TIME =     0.16 SECS, INTEGRAL =      2.06 TIME LEFT: 172797.74
 STEP:  14 TIME =     0.15 SECS, INTEGRAL =      2.22 TIME LEFT: 172797.59
 STEP:  15 TIME =     0.15 SECS, INTEGRAL =      2.37 TIME LEFT: 172797.43
 STEP:  16 TIME =     0.15 SECS, INTEGRAL =      2.51 TIME LEFT: 172797.29
 STEP:  17 TIME =     0.16 SECS, INTEGRAL =      2.68 TIME LEFT: 172797.13
 STEP:  18 TIME =     0.15 SECS, INTEGRAL =      2.83 TIME LEFT: 172796.97
 STEP:  19 TIME =     0.16 SECS, INTEGRAL =      2.99 TIME LEFT: 172796.81
 STEP:  20 TIME =     0.16 SECS, INTEGRAL =      3.15 TIME LEFT: 172796.65
 STEP:  21 TIME =     0.15 SECS, INTEGRAL =      3.31 TIME LEFT: 172796.49
 STEP:  22 TIME =     0.16 SECS, INTEGRAL =      3.47 TIME LEFT: 172796.33
 STEP:  23 TIME =     0.16 SECS, INTEGRAL =      3.62 TIME LEFT: 172796.18
 STEP:  24 TIME =     0.15 SECS, INTEGRAL =      3.78 TIME LEFT: 172796.02
 STEP:  25 TIME =     0.16 SECS, INTEGRAL =      3.94 TIME LEFT: 172795.86
 STEP:  26 TIME =     0.16 SECS, INTEGRAL =      4.10 TIME LEFT: 172795.70
 STEP:  27 TIME =     0.15 SECS, INTEGRAL =      4.25 TIME LEFT: 172795.55
 STEP:  28 TIME =     0.16 SECS, INTEGRAL =      4.41 TIME LEFT: 172795.39
 STEP:  29 TIME =     0.15 SECS, INTEGRAL =      4.57 TIME LEFT: 172795.23
 STEP:  30 TIME =     0.15 SECS, INTEGRAL =      4.72 TIME LEFT: 172795.08
 STEP:  31 TIME =     0.16 SECS, INTEGRAL =      4.88 TIME LEFT: 172794.92
 STEP:  32 TIME =     0.15 SECS, INTEGRAL =      5.03 TIME LEFT: 172794.77
 STEP:  33 TIME =     0.16 SECS, INTEGRAL =      5.19 TIME LEFT: 172794.61
 STEP:  34 TIME =     0.15 SECS, INTEGRAL =      5.33 TIME LEFT: 172794.47
 STEP:  35 TIME =     0.16 SECS, INTEGRAL =      5.50 TIME LEFT: 172794.30
 STEP:  36 TIME =     0.16 SECS, INTEGRAL =      5.65 TIME LEFT: 172794.15
 STEP:  37 TIME =     0.16 SECS, INTEGRAL =      5.82 TIME LEFT: 172793.99
 STEP:  38 TIME =     0.17 SECS, INTEGRAL =      5.98 TIME LEFT: 172793.82
 STEP:  39 TIME =     0.16 SECS, INTEGRAL =      6.14 TIME LEFT: 172793.66
 STEP:  40 TIME =     0.16 SECS, INTEGRAL =      6.30 TIME LEFT: 172793.50
 STEP:  41 TIME =     0.16 SECS, INTEGRAL =      6.46 TIME LEFT: 172793.34
 STEP:  42 TIME =     0.15 SECS, INTEGRAL =      6.61 TIME LEFT: 172793.19
 STEP:  43 TIME =     0.15 SECS, INTEGRAL =      6.76 TIME LEFT: 172793.04
 STEP:  44 TIME =     0.15 SECS, INTEGRAL =      6.91 TIME LEFT: 172792.89
 STEP:  45 TIME =     0.15 SECS, INTEGRAL =      7.06 TIME LEFT: 172792.74
 STEP:  46 TIME =     0.14 SECS, INTEGRAL =      7.20 TIME LEFT: 172792.60
 STEP:  47 TIME =     0.14 SECS, INTEGRAL =      7.34 TIME LEFT: 172792.46
 STEP:  48 TIME =     0.14 SECS, INTEGRAL =      7.48 TIME LEFT: 172792.32
 STEP:  49 TIME =     0.14 SECS, INTEGRAL =      7.62 TIME LEFT: 172792.18
 STEP:  50 TIME =     0.14 SECS, INTEGRAL =      7.77 TIME LEFT: 172792.04
 STEP:  51 TIME =     0.14 SECS, INTEGRAL =      7.91 TIME LEFT: 172791.89
 STEP:  52 TIME =     0.14 SECS, INTEGRAL =      8.05 TIME LEFT: 172791.75
 STEP:  53 TIME =     0.14 SECS, INTEGRAL =      8.19 TIME LEFT: 172791.61
 STEP:  54 TIME =     0.14 SECS, INTEGRAL =      8.34 TIME LEFT: 172791.46
 STEP:  55 TIME =     0.14 SECS, INTEGRAL =      8.48 TIME LEFT: 172791.32
 STEP:  56 TIME =     0.14 SECS, INTEGRAL =      8.62 TIME LEFT: 172791.18
 STEP:  57 TIME =     0.14 SECS, INTEGRAL =      8.76 TIME LEFT: 172791.04
 STEP:  58 TIME =     0.14 SECS, INTEGRAL =      8.90 TIME LEFT: 172790.90
 STEP:  59 TIME =     0.14 SECS, INTEGRAL =      9.04 TIME LEFT: 172790.76
 STEP:  60 TIME =     0.14 SECS, INTEGRAL =      9.19 TIME LEFT: 172790.62
 STEP:  61 TIME =     0.15 SECS, INTEGRAL =      9.34 TIME LEFT: 172790.46
 STEP:  62 TIME =     0.15 SECS, INTEGRAL =      9.49 TIME LEFT: 172790.31
 STEP:  63 TIME =     0.16 SECS, INTEGRAL =      9.65 TIME LEFT: 172790.15
 STEP:  64 TIME =     0.16 SECS, INTEGRAL =      9.81 TIME LEFT: 172789.99
 STEP:  65 TIME =     0.16 SECS, INTEGRAL =      9.97 TIME LEFT: 172789.84
 STEP:  66 TIME =     0.16 SECS, INTEGRAL =     10.13 TIME LEFT: 172789.68
 STEP:  67 TIME =     0.15 SECS, INTEGRAL =     10.28 TIME LEFT: 172789.52
 STEP:  68 TIME =     0.16 SECS, INTEGRAL =     10.44 TIME LEFT: 172789.36
 STEP:  69 TIME =     0.16 SECS, INTEGRAL =     10.60 TIME LEFT: 172789.21
 STEP:  70 TIME =     0.15 SECS, INTEGRAL =     10.74 TIME LEFT: 172789.06
 STEP:  71 TIME =     0.14 SECS, INTEGRAL =     10.89 TIME LEFT: 172788.91
 STEP:  72 TIME =     0.14 SECS, INTEGRAL =     11.03 TIME LEFT: 172788.77
 STEP:  73 TIME =     0.15 SECS, INTEGRAL =     11.18 TIME LEFT: 172788.63
 STEP:  74 TIME =     0.15 SECS, INTEGRAL =     11.32 TIME LEFT: 172788.48
 STEP:  75 TIME =     0.16 SECS, INTEGRAL =     11.48 TIME LEFT: 172788.32
 STEP:  76 TIME =     0.16 SECS, INTEGRAL =     11.64 TIME LEFT: 172788.16
 STEP:  77 TIME =     0.15 SECS, INTEGRAL =     11.79 TIME LEFT: 172788.01
 STEP:  78 TIME =     0.16 SECS, INTEGRAL =     11.95 TIME LEFT: 172787.85
 STEP:  79 TIME =     0.15 SECS, INTEGRAL =     12.10 TIME LEFT: 172787.70
 STEP:  80 TIME =     0.14 SECS, INTEGRAL =     12.24 TIME LEFT: 172787.56
 STEP:  81 TIME =     0.14 SECS, INTEGRAL =     12.38 TIME LEFT: 172787.42
 STEP:  82 TIME =     0.15 SECS, INTEGRAL =     12.53 TIME LEFT: 172787.27
 STEP:  83 TIME =     0.16 SECS, INTEGRAL =     12.69 TIME LEFT: 172787.11
 STEP:  84 TIME =     0.15 SECS, INTEGRAL =     12.83 TIME LEFT: 172786.97
 STEP:  85 TIME =     0.15 SECS, INTEGRAL =     12.98 TIME LEFT: 172786.82
 STEP:  86 TIME =     0.14 SECS, INTEGRAL =     13.12 TIME LEFT: 172786.68
 STEP:  87 TIME =     0.14 SECS, INTEGRAL =     13.27 TIME LEFT: 172786.54
 STEP:  88 TIME =     0.14 SECS, INTEGRAL =     13.41 TIME LEFT: 172786.39
 STEP:  89 TIME =     0.14 SECS, INTEGRAL =     13.55 TIME LEFT: 172786.25
 STEP:  90 TIME =     0.14 SECS, INTEGRAL =     13.69 TIME LEFT: 172786.11
 STEP:  91 TIME =     0.15 SECS, INTEGRAL =     13.84 TIME LEFT: 172785.96
 STEP:  92 TIME =     0.15 SECS, INTEGRAL =     13.99 TIME LEFT: 172785.81
 STEP:  93 TIME =     0.15 SECS, INTEGRAL =     14.14 TIME LEFT: 172785.66
 STEP:  94 TIME =     0.15 SECS, INTEGRAL =     14.29 TIME LEFT: 172785.51
 STEP:  95 TIME =     0.14 SECS, INTEGRAL =     14.44 TIME LEFT: 172785.36
 STEP:  96 TIME =     0.14 SECS, INTEGRAL =     14.58 TIME LEFT: 172785.22
 STEP:  97 TIME =     0.15 SECS, INTEGRAL =     14.73 TIME LEFT: 172785.07
 STEP:  98 TIME =     0.16 SECS, INTEGRAL =     14.89 TIME LEFT: 172784.91
 STEP:  99 TIME =     0.15 SECS, INTEGRAL =     15.04 TIME LEFT: 172784.76
 STEP: 100 TIME =     0.15 SECS, INTEGRAL =     15.19 TIME LEFT: 172784.61
 STEP: 101 TIME =     0.14 SECS, INTEGRAL =     15.33 TIME LEFT: 172784.47
 STEP: 102 TIME =     0.15 SECS, INTEGRAL =     15.48 TIME LEFT: 172784.32
 STEP: 103 TIME =     0.15 SECS, INTEGRAL =     15.62 TIME LEFT: 172784.18
 STEP: 104 TIME =     0.15 SECS, INTEGRAL =     15.77 TIME LEFT: 172784.03
 STEP: 105 TIME =     0.15 SECS, INTEGRAL =     15.92 TIME LEFT: 172783.88

(To convert to Hartree/Bohr^2, multiply by (10^(-21) x N x a0^2)/(4.184 x 627.51) = 0.0642)


           FORCE MATRIX IN MILLIDYNES/ANGSTROM


                  N  1       C  2       O  3       C  4       C  5       C  6
 ------------------------------------------------------------------------------
     N    1  14.134701
     C    2   3.671070  16.205875
     O    3   2.174580  10.259039  12.598042
     C    4   0.866160   3.446048   1.299519  15.347083
     C    5   0.080076   0.937647   0.100181   6.295299  14.209110
     C    6   0.026109   0.141274   0.019745   1.946362   4.769701  14.140472
     C    7   0.047727   0.237402   0.046434   1.261578   2.010221   6.162488
     C    8   0.112693   0.748982   0.095285   4.479605   1.917833   1.145104
     C    9   0.030463   0.078138   0.030078   1.464164   1.230534   1.893539
     C   10   0.004235   0.014901   0.006649   0.474375   0.534054   0.606668
     C   11   0.037984   0.035587   0.020821   0.506344   0.512312   0.560064
     C   12   0.093465   0.107173   0.049628   0.548235   0.471289   0.526701
     C   13   0.898595   0.139343   0.105795   1.332069   0.484911   0.459884
     C   14   3.531695   1.765876   0.489597   0.078221   0.058573   0.018874
     O   15   2.140118   0.482429   0.216902   0.082482   0.025258   0.012223
     H   16   0.023147   0.106187   0.029500   0.667755   3.411930   0.629089
     H   17   0.008730   0.024989   0.010227   0.071793   0.632771   3.379196
     H   18   0.010853   0.015519   0.008795   0.009585   0.012050   0.013365
     H   19   0.008717   0.011480   0.007723   0.011881   0.010900   0.014436
     H   20   0.023521   0.022551   0.013366   0.013046   0.018317   0.016889
     C   21   4.051699   0.908338   0.107604   0.106318   0.014096   0.008156
     C   22   0.935969   0.105849   0.042265   0.019039   0.004342   0.002762
     C   23   0.136032   0.085955   0.032637   0.017236   0.003888   0.002375
     H   24   0.051912   0.056194   0.028009   0.010029   0.003200   0.000797
     C   25   0.033927   0.051495   0.018909   0.009134   0.001595   0.001144
     C   26   0.136228   0.060583   0.021819   0.009856   0.001118   0.000983
     H   27   0.019838   0.019198   0.007530   0.003220   0.000773   0.000284
     C   28   0.923938   0.122364   0.046913   0.025608   0.003516   0.002536
     H   29   0.018503   0.012287   0.004809   0.002317   0.000582   0.000453
     H   30   0.034056   0.032676   0.011692   0.005575   0.000925   0.000516
     O   31   0.092498   0.058999   0.020025   0.011305   0.001971   0.001562
     H   32   0.019054   0.015333   0.006112   0.002902   0.000562   0.000683
     N   33   0.066453   0.279102   0.082051   0.236759   0.173771   1.093867
     O   34   0.019264   0.065333   0.026327   0.037708   0.033740   0.155536
     O   35   0.018851   0.062836   0.023101   0.034815   0.046740   0.095874


                  C  7       C  8       C  9       C 10       C 11       C 12
 ------------------------------------------------------------------------------
     C    7  14.740549
     C    8   1.507243  15.295326
     C    9   4.168625   5.016430  14.828489
     C   10   1.392873   1.496664   4.373603  14.373538
     C   11   0.580740   1.142294   1.839971   6.621032  14.286409
     C   12   0.469983   1.876375   0.985723   2.023369   4.769804  14.139431
     C   13   0.425472   4.537329   1.332121   1.182566   2.004286   6.032260
     C   14   0.069674   0.829185   0.172718   0.043407   0.180369   1.145184
     O   15   0.032482   0.096177   0.036897   0.011925   0.040505   0.139149
     H   16   0.068891   0.098967   0.022580   0.016028   0.015445   0.015209
     H   17   0.686274   0.019248   0.096789   0.017173   0.013979   0.007055
     H   18   0.023297   0.065885   0.627727   3.392072   0.657530   0.123526
     H   19   0.013201   0.010479   0.111546   0.687265   3.430189   0.660913
     H   20   0.019838   0.096234   0.026651   0.077859   0.607379   3.427816
     C   21   0.010573   0.012490   0.008729   0.003112   0.010013   0.021294
     C   22   0.003172   0.002020   0.002083   0.000806   0.002721   0.004877
     C   23   0.003329   0.001598   0.001691   0.001349   0.002734   0.005601
     H   24   0.000987   0.002426   0.002264   0.000773   0.001302   0.002203
     C   25   0.001487   0.001082   0.001088   0.001059   0.001487   0.003383
     C   26   0.001404   0.001418   0.001607   0.001242   0.001208   0.003602
     H   27   0.000494   0.000667   0.000537   0.000565   0.000688   0.001296
     C   28   0.004098   0.002853   0.002706   0.002335   0.002715   0.006309
     H   29   0.000430   0.000448   0.000519   0.000528   0.000345   0.000820
     H   30   0.001026   0.000423   0.000658   0.000481   0.000849   0.001913
     O   31   0.002044   0.001357   0.001503   0.001133   0.001639   0.003635
     H   32   0.000566   0.000432   0.000740   0.000495   0.000513   0.000655
     N   33   2.888865   0.106531   0.846411   0.060558   0.064264   0.085793
     O   34   1.313703   0.020542   0.130761   0.011148   0.016431   0.012398
     O   35   1.273643   0.017504   0.089357   0.093624   0.029829   0.023041


                  C 13       C 14       O 15       H 16       H 17       H 18
 ------------------------------------------------------------------------------
     C   13  15.276238
     C   14   3.458287  16.190520
     O   15   1.341624  10.234271  12.578656
     H   16   0.009615   0.022658   0.013109   4.175065
     H   17   0.009389   0.012626   0.008143   0.022797   4.148443
     H   18   0.046360   0.048215   0.015791   0.002817   0.003051   4.175011
     H   19   0.068532   0.028451   0.012889   0.003607   0.002618   0.040556
     H   20   0.658463   0.111995   0.030282   0.003733   0.003875   0.014400
     C   21   0.106494   0.895555   0.113692   0.005919   0.003151   0.003393
     C   22   0.021780   0.115838   0.052707   0.001550   0.001080   0.001109
     C   23   0.019015   0.073421   0.025425   0.001351   0.000842   0.001003
     H   24   0.008196   0.043256   0.015468   0.000608   0.000279   0.000414
     C   25   0.010586   0.046019   0.015804   0.000954   0.000428   0.000370
     C   26   0.012155   0.053385   0.017403   0.001001   0.000505   0.000438
     H   27   0.004109   0.017812   0.006479   0.000325   0.000195   0.000205
     C   28   0.027638   0.117390   0.048032   0.002286   0.000853   0.001091
     H   29   0.002425   0.011990   0.005223   0.000157   0.000122   0.000179
     H   30   0.007081   0.029701   0.010983   0.000527   0.000236   0.000234
     O   31   0.012727   0.051054   0.016197   0.000982   0.000516   0.000791
     H   32   0.002971   0.013466   0.005017   0.000240   0.000251   0.000202
     N   33   0.082635   0.113542   0.059533   0.034135   0.123140   0.254776
     O   34   0.022508   0.037101   0.022354   0.013162   0.027062   0.037521
     O   35   0.023275   0.031250   0.017285   0.013804   0.033549   0.221325


                  H 19       H 20       C 21       C 22       C 23       H 24
 ------------------------------------------------------------------------------
     H   19   4.245858
     H   20   0.022893   4.166343
     C   21   0.002789   0.006223  15.041058
     C   22   0.000776   0.001799   5.406733  14.304871
     C   23   0.000789   0.001601   2.474530   5.211562  15.119098
     H   24   0.000442   0.000636   0.698058   3.447090   0.663732   4.271099
     C   25   0.000396   0.000738   1.619440   2.005923   4.954760   0.083134
     C   26   0.000334   0.000609   2.363035   1.581231   2.403975   0.040251
     H   27   0.000197   0.000329   0.034140   0.079944   0.676112   0.011911
     C   28   0.000837   0.001800   5.363798   2.179044   1.697221   0.098298
     H   29   0.000186   0.000208   0.093059   0.025442   0.109392   0.012477
     H   30   0.000252   0.000524   0.696394   0.088286   0.054405   0.010401
     O   31   0.000546   0.001092   0.211583   1.227602   4.541483   0.067563
     H   32   0.000163   0.000165   0.030426   0.065640   1.087683   0.024772
     N   33   0.017385   0.014237   0.021947   0.006814   0.007429   0.002510
     O   34   0.007051   0.007418   0.008009   0.002630   0.002411   0.000991
     O   35   0.006121   0.005422   0.006594   0.002863   0.002959   0.001204


                  C 25       C 26       H 27       C 28       H 29       H 30
 ------------------------------------------------------------------------------
     C   25  14.199984
     C   26   5.767565  14.232674
     H   27   3.461171   0.684653   4.286717
     C   28   2.266939   5.347279   0.102401  14.063840
     H   29   0.663986   3.476087   0.027717   0.641066   4.256052
     H   30   0.088110   0.672527   0.010882   3.448811   0.028380   4.280605
     O   31   1.348532   0.205383   0.050378   0.137142   0.025129   0.045656
     H   32   0.119980   0.041106   0.014044   0.022991   0.007886   0.009543
     N   33   0.003734   0.003575   0.001363   0.008738   0.000965   0.001940
     O   34   0.001291   0.001491   0.000484   0.002818   0.000627   0.000491
     O   35   0.001083   0.001043   0.000450   0.002607   0.000428   0.000533


                  O 31       H 32       N 33       O 34       O 35
 ------------------------------------------------------------------
     O   31   7.905600
     H   32   2.977724   3.537927
     N   33   0.004738   0.000900  17.547296
     O   34   0.001814   0.000420   8.771080  11.877103
     O   35   0.001641   0.000515   8.690635   2.872616  11.617587


          HEAT OF FORMATION =     -70.962795 KCALS/MOLE

          ZERO POINT ENERGY     146.776 KCAL/MOL

         NOTE: SYSTEM IS NOT A GROUND STATE, THEREFORE ZERO POINT
         ENERGY IS NOT MEANINGFULL. ZERO POINT ENERGY PRINTED
         DOES NOT INCLUDE THE  1 IMAGINARY FREQUENCIES


           NORMAL COORDINATE ANALYSIS (Total motion = 1 Angstrom)


   Root No.       1         2         3         4         5         6         7         8

                 1 A       2 A       3 A       4 A       5 A       6 A       7 A       8 A   

                 -40.4      34.0      41.0      64.7      74.3      84.0     110.5     156.6
  
           1    0.0068   -0.0080   -0.0022   -0.0203    0.0135   -0.0080   -0.0010    0.0050
           2    0.0047   -0.0025   -0.0019   -0.0122    0.0078   -0.0060    0.0023    0.0037
           3   -0.0139   -0.0270    0.0045   -0.0005    0.0068    0.0230   -0.0789   -0.0022
           4    0.0066   -0.0079   -0.0024   -0.0203    0.0133   -0.0078   -0.0006    0.0031
           5    0.0027   -0.0003   -0.0006   -0.0058    0.0038   -0.0041    0.0038   -0.0079
           6   -0.0046   -0.0281    0.0380    0.0089    0.0113    0.0081    0.0055    0.0016
           7    0.0082   -0.0095   -0.0030   -0.0255    0.0167   -0.0099   -0.0009    0.0165
           8    0.0019    0.0006   -0.0002   -0.0028    0.0019   -0.0031    0.0038   -0.0152
           9    0.0102   -0.0393    0.0788    0.0311    0.0501    0.0170    0.0748    0.0018
          10    0.0047   -0.0054   -0.0011   -0.0140    0.0090   -0.0060   -0.0015   -0.0096
          11    0.0015    0.0010   -0.0001   -0.0016    0.0013   -0.0028    0.0037   -0.0135
          12   -0.0116   -0.0166    0.0206   -0.0063   -0.0264   -0.0101    0.0015    0.0009
          13    0.0047   -0.0054   -0.0011   -0.0136    0.0091   -0.0058   -0.0015   -0.0101
          14   -0.0005    0.0037    0.0012    0.0071   -0.0042    0.0013    0.0038   -0.0135
          15   -0.0215   -0.0070    0.0212   -0.0226   -0.0649   -0.0243    0.0064    0.0151
          16    0.0027   -0.0032    0.0001   -0.0063    0.0045   -0.0034   -0.0018   -0.0152
          17   -0.0015    0.0049    0.0019    0.0111   -0.0070    0.0029    0.0038   -0.0133
          18   -0.0232    0.0089    0.0058   -0.0250   -0.0619   -0.0242    0.0065    0.0149
          19    0.0007   -0.0008    0.0011   -0.0003    0.0004   -0.0006   -0.0023   -0.0163
          20   -0.0008    0.0034    0.0011    0.0074   -0.0045    0.0006    0.0042   -0.0138
          21   -0.0033    0.0130   -0.0003   -0.0100   -0.0239   -0.0078    0.0023   -0.0106
          22    0.0029   -0.0032    0.0000   -0.0080    0.0053   -0.0034   -0.0020   -0.0133
          23    0.0025   -0.0004   -0.0007   -0.0052    0.0035   -0.0043    0.0040   -0.0101
          24   -0.0031   -0.0135    0.0059    0.0004   -0.0140   -0.0125   -0.0004   -0.0091
          25    0.0002   -0.0008    0.0009   -0.0002    0.0006   -0.0010   -0.0023   -0.0163
          26    0.0009    0.0007   -0.0003   -0.0011    0.0011   -0.0035    0.0040   -0.0133
          27    0.0147    0.0002    0.0059   -0.0003   -0.0157   -0.0104    0.0000   -0.0315
          28   -0.0045    0.0009    0.0010    0.0078   -0.0025   -0.0015   -0.0024   -0.0240
          29    0.0040   -0.0005   -0.0004   -0.0063    0.0033   -0.0034    0.0041   -0.0084
          30    0.0494    0.0004    0.0123    0.0078   -0.0113   -0.0144   -0.0009   -0.0509
          31   -0.0043    0.0008    0.0009    0.0074   -0.0022   -0.0017   -0.0025   -0.0241
          32    0.0070   -0.0026   -0.0013   -0.0141    0.0076   -0.0048    0.0038    0.0013
          33    0.0316   -0.0136    0.0020    0.0251    0.0032   -0.0504    0.0015    0.0058
          34   -0.0010   -0.0013    0.0003   -0.0006    0.0018   -0.0028   -0.0025   -0.0194
          35    0.0081   -0.0038   -0.0019   -0.0177    0.0098   -0.0059    0.0037    0.0049
          36   -0.0020   -0.0248   -0.0119    0.0248    0.0098   -0.0523    0.0048    0.0507
          37    0.0031   -0.0033    0.0000   -0.0085    0.0055   -0.0035   -0.0021   -0.0136
          38    0.0054   -0.0025   -0.0018   -0.0126    0.0075   -0.0056    0.0035    0.0011
          39   -0.0107   -0.0232   -0.0080    0.0075   -0.0006   -0.0178    0.0028    0.0185
          40    0.0050   -0.0056   -0.0016   -0.0158    0.0101   -0.0058   -0.0008   -0.0036
          41    0.0061   -0.0036   -0.0027   -0.0157    0.0096   -0.0069    0.0034    0.0081
          42   -0.0250   -0.0263   -0.0202   -0.0089   -0.0026    0.0213    0.0106    0.0021
          43    0.0052   -0.0060   -0.0014   -0.0160    0.0106   -0.0062   -0.0015   -0.0021
          44    0.0077   -0.0060   -0.0034   -0.0205    0.0139   -0.0103    0.0033    0.0207
          45   -0.0421   -0.0266   -0.0469   -0.0294   -0.0099    0.0567    0.0894   -0.0176
          46    0.0062   -0.0072   -0.0020   -0.0192    0.0132   -0.0081   -0.0016   -0.0093
          47   -0.0014    0.0049    0.0017    0.0107   -0.0067    0.0028    0.0039   -0.0140
          48   -0.0289   -0.0107    0.0328   -0.0315   -0.0894   -0.0321    0.0102    0.0291
          49    0.0027   -0.0030    0.0002   -0.0061    0.0042   -0.0032   -0.0017   -0.0147
          50   -0.0029    0.0073    0.0026    0.0177   -0.0097    0.0061    0.0032   -0.0157
          51   -0.0407    0.0185   -0.0007   -0.0369   -0.0821   -0.0337    0.0100    0.0387
          52   -0.0139    0.0020   -0.0008    0.0159   -0.0039   -0.0061   -0.0024   -0.0266
          53    0.0003    0.0002   -0.0010   -0.0024    0.0025   -0.0052    0.0040   -0.0099
          54    0.0999    0.0127    0.0292   -0.0033   -0.0236    0.0182   -0.0032   -0.1012
          55   -0.0062    0.0022    0.0015    0.0127   -0.0052   -0.0006   -0.0024   -0.0294
          56    0.0083   -0.0036   -0.0017   -0.0176    0.0096   -0.0056    0.0037    0.0047
          57    0.0461   -0.0142    0.0048    0.0337    0.0076   -0.0657    0.0011    0.0101
          58   -0.0010   -0.0012    0.0003   -0.0011    0.0019   -0.0024   -0.0023   -0.0197
          59    0.0115   -0.0057   -0.0023   -0.0252    0.0133   -0.0065    0.0041    0.0093
          60   -0.0149   -0.0332   -0.0236    0.0346    0.0207   -0.0717    0.0082    0.0975
          61    0.0056   -0.0081   -0.0048   -0.0136    0.0091   -0.0049   -0.0005    0.0137
          62    0.0037   -0.0028   -0.0034   -0.0086    0.0057   -0.0043    0.0014    0.0082
          63   -0.0046   -0.0079   -0.0005   -0.0006    0.0073    0.0160   -0.0620   -0.0038
          64   -0.0104    0.0206    0.0231   -0.0178    0.0093   -0.0090    0.0134    0.0174
          65   -0.0141   -0.0075    0.0164   -0.0119    0.0090    0.0055   -0.0246    0.0082
          66    0.0004    0.0013   -0.0037   -0.0001    0.0057    0.0099   -0.0462   -0.0029
          67   -0.0140    0.0266    0.0189    0.0134   -0.0103    0.0028    0.0140    0.0026
          68   -0.0159   -0.0040    0.0140    0.0048   -0.0014    0.0120   -0.0253    0.0002
          69    0.0098    0.0213   -0.0090    0.0000    0.0029   -0.0035   -0.0116   -0.0002
          70   -0.0198    0.0383    0.0475   -0.0396    0.0218   -0.0191    0.0261    0.0262
          71   -0.0267   -0.0132    0.0333   -0.0245    0.0182    0.0101   -0.0463    0.0113
          72   -0.0032   -0.0069   -0.0022    0.0000    0.0068    0.0152   -0.0605   -0.0039
          73   -0.0021    0.0027   -0.0134    0.0450   -0.0286    0.0176    0.0039   -0.0094
          74   -0.0008    0.0027   -0.0083    0.0225   -0.0141    0.0075    0.0017   -0.0041
          75    0.0139    0.0318   -0.0107   -0.0002    0.0018   -0.0102    0.0052    0.0012
          76    0.0135   -0.0281   -0.0412    0.0439   -0.0254    0.0199   -0.0095   -0.0021
          77    0.0166    0.0059   -0.0282    0.0230   -0.0156   -0.0034    0.0272    0.0017
          78    0.0091    0.0225   -0.0077   -0.0008    0.0034   -0.0041   -0.0114    0.0000
          79   -0.0055    0.0080   -0.0162    0.0701   -0.0449    0.0273    0.0059   -0.0236
          80   -0.0028    0.0051   -0.0097    0.0358   -0.0227    0.0129    0.0022   -0.0117
          81    0.0212    0.0474   -0.0148    0.0000   -0.0003   -0.0202    0.0311    0.0030
          82    0.0176   -0.0340   -0.0364    0.0138   -0.0057    0.0084   -0.0130    0.0106
          83    0.0186    0.0031   -0.0253    0.0070   -0.0049   -0.0093    0.0243    0.0083
          84   -0.0004    0.0025   -0.0026   -0.0009    0.0062    0.0094   -0.0463   -0.0027
          85    0.0229   -0.0484   -0.0677    0.0686   -0.0394    0.0318   -0.0185   -0.0082
          86    0.0285    0.0107   -0.0457    0.0363   -0.0251   -0.0069    0.0484    0.0002
          87    0.0124    0.0308   -0.0089   -0.0012    0.0026   -0.0093    0.0019    0.0010
          88    0.0297   -0.0578   -0.0581    0.0155   -0.0046    0.0116   -0.0250    0.0137
          89    0.0323    0.0060   -0.0411    0.0085   -0.0066   -0.0177    0.0436    0.0117
          90   -0.0043   -0.0048    0.0001   -0.0011    0.0072    0.0143   -0.0589   -0.0037
          91   -0.0294    0.0536    0.0450    0.0183   -0.0143    0.0029    0.0209   -0.0060
          92   -0.0326   -0.0074    0.0326    0.0072   -0.0006    0.0246   -0.0583   -0.0078
          93    0.0150    0.0311   -0.0123    0.0000    0.0014   -0.0109    0.0093    0.0020
          94   -0.0326    0.0717    0.0642   -0.0097    0.0011   -0.0131    0.0438    0.0099
          95   -0.0401   -0.0097    0.0462   -0.0081    0.0097    0.0246   -0.0714   -0.0016
          96    0.0115    0.0232   -0.0107    0.0005    0.0022   -0.0052   -0.0067    0.0002
          97   -0.0022    0.0026    0.0019    0.0070   -0.0059    0.0064   -0.0028    0.0153
          98   -0.0020    0.0050    0.0023    0.0114   -0.0096    0.0049    0.0040    0.0053
          99   -0.0013    0.0304   -0.0154   -0.0019    0.0193    0.0148    0.0002    0.0040
         100    0.0229   -0.0010    0.0169   -0.0038   -0.0332    0.0233   -0.0024    0.0286
         101    0.0103    0.0138    0.0043    0.0154   -0.0095    0.0317    0.0029    0.0584
         102   -0.0442    0.0367   -0.0411    0.0170    0.0658   -0.0135   -0.0004   -0.0140
         103   -0.0332    0.0093   -0.0133    0.0228    0.0147   -0.0034   -0.0036    0.0474
         104   -0.0227   -0.0015   -0.0023    0.0127   -0.0109   -0.0215    0.0053   -0.0211
         105    0.0541    0.0355    0.0028   -0.0154    0.0064    0.0628   -0.0011    0.0226


   Root No.       9        10        11        12        13        14        15        16

                 9 A      10 A      11 A      12 A      13 A      14 A      15 A      16 A   

                 186.0     198.1     202.0     207.8     232.5     244.6     284.3     323.9
  
           1    0.0028    0.0030    0.0046    0.0071   -0.0142    0.0055    0.0126   -0.0072
           2    0.0001   -0.0053   -0.0036   -0.0138   -0.0045    0.0000    0.0057   -0.0007
           3   -0.0004    0.0056    0.0020    0.0158   -0.0041   -0.0030   -0.0082    0.0216
           4    0.0009    0.0022    0.0030    0.0038   -0.0148    0.0047    0.0083   -0.0139
           5   -0.0078    0.0070   -0.0006    0.0007   -0.0096   -0.0014   -0.0161   -0.0023
           6    0.0080    0.0131   -0.0047   -0.0012   -0.0037   -0.0237    0.0030    0.0084
           7    0.0116   -0.0075    0.0029   -0.0046   -0.0205    0.0125    0.0778   -0.0222
           8   -0.0134    0.0126   -0.0004    0.0058   -0.0059   -0.0059   -0.0547    0.0029
           9   -0.0106   -0.0137    0.0037    0.0004    0.0043    0.0226   -0.0031   -0.0038
          10   -0.0096    0.0051   -0.0022   -0.0023   -0.0074   -0.0012   -0.0154   -0.0218
          11   -0.0105    0.0099   -0.0007    0.0045   -0.0039   -0.0039   -0.0236   -0.0050
          12    0.0246    0.0299   -0.0103   -0.0129   -0.0079   -0.0514    0.0092    0.0029
          13   -0.0096    0.0052   -0.0025   -0.0025   -0.0071   -0.0015   -0.0140   -0.0214
          14   -0.0060    0.0117    0.0026    0.0158    0.0052   -0.0023    0.0102   -0.0058
          15   -0.0182   -0.0109    0.0032    0.0088   -0.0107   -0.0591    0.0108    0.0030
          16   -0.0106    0.0042   -0.0038   -0.0032    0.0024   -0.0016    0.0025    0.0058
          17   -0.0042    0.0106    0.0034    0.0182    0.0097   -0.0020    0.0252    0.0062
          18   -0.0281   -0.0229    0.0082    0.0096    0.0060    0.0434   -0.0113   -0.0073
          19   -0.0122    0.0005   -0.0065   -0.0100    0.0076   -0.0030    0.0003    0.0248
          20   -0.0037    0.0128    0.0051    0.0227    0.0068   -0.0007    0.0267   -0.0043
          21    0.0169   -0.0003    0.0012   -0.0072    0.0086    0.0614   -0.0116   -0.0036
          22   -0.0128    0.0026   -0.0056   -0.0097   -0.0025   -0.0042   -0.0120   -0.0245
          23   -0.0077    0.0104    0.0015    0.0093   -0.0062   -0.0025   -0.0197   -0.0020
          24    0.0467    0.0447   -0.0144   -0.0263   -0.0002   -0.0047   -0.0008   -0.0085
          25   -0.0121    0.0007   -0.0060   -0.0088    0.0071   -0.0043    0.0027    0.0180
          26   -0.0078    0.0111    0.0020    0.0125   -0.0009   -0.0025   -0.0081    0.0135
          27    0.0520    0.0109   -0.0024   -0.0167   -0.0010    0.0235   -0.0089   -0.0095
          28   -0.0128    0.0007   -0.0058   -0.0051    0.0164   -0.0077    0.0209    0.0395
          29   -0.0072    0.0105    0.0017    0.0094   -0.0070   -0.0005   -0.0216    0.0028
          30    0.0377   -0.0416    0.0152    0.0085   -0.0133   -0.0121   -0.0066   -0.0011
          31   -0.0131    0.0007   -0.0060   -0.0053    0.0165   -0.0082    0.0214    0.0402
          32   -0.0032    0.0063    0.0011    0.0023   -0.0142    0.0016   -0.0308   -0.0100
          33   -0.0202   -0.0385    0.0120    0.0173   -0.0081   -0.0162   -0.0016    0.0013
          34   -0.0129    0.0008   -0.0066   -0.0097    0.0082   -0.0073    0.0063    0.0036
          35   -0.0018    0.0051    0.0009   -0.0002   -0.0176    0.0020   -0.0342   -0.0239
          36   -0.0399    0.0216   -0.0087   -0.0031    0.0104    0.0144    0.0034   -0.0020
          37   -0.0132    0.0027   -0.0060   -0.0107   -0.0030   -0.0042   -0.0120   -0.0367
          38   -0.0017    0.0036    0.0004    0.0001   -0.0099    0.0003   -0.0214    0.0017
          39    0.0116    0.0485   -0.0159   -0.0207    0.0069    0.0061    0.0014   -0.0037
          40   -0.0054   -0.0002   -0.0021   -0.0075   -0.0115    0.0014    0.0115   -0.0338
          41    0.0043   -0.0012    0.0012   -0.0020   -0.0096    0.0025   -0.0046    0.0150
          42    0.0041    0.0176   -0.0040   -0.0035    0.0015   -0.0008   -0.0005    0.0067
          43   -0.0041    0.0000   -0.0012   -0.0060   -0.0124    0.0026    0.0151   -0.0241
          44    0.0156    0.0008    0.0096    0.0133   -0.0249    0.0139    0.0186    0.1237
          45   -0.0030   -0.0247    0.0089    0.0050   -0.0037   -0.0033    0.0009   -0.0003
          46   -0.0117    0.0053   -0.0040   -0.0082   -0.0140   -0.0019   -0.0366   -0.0312
          47   -0.0045    0.0116    0.0036    0.0192    0.0098   -0.0013    0.0251    0.0015
          48   -0.0500   -0.0358    0.0106    0.0270   -0.0223   -0.1268    0.0254    0.0120
          49   -0.0103    0.0040   -0.0037   -0.0032    0.0023   -0.0015    0.0020    0.0056
          50   -0.0035    0.0089    0.0012    0.0133    0.0161   -0.0030    0.0298    0.0307
          51   -0.0746   -0.0501    0.0173    0.0255    0.0143    0.0921   -0.0236   -0.0144
          52   -0.0074   -0.0027   -0.0036   -0.0019    0.0189   -0.0059    0.0262    0.0475
          53   -0.0044    0.0082    0.0029    0.0111   -0.0059   -0.0004   -0.0187    0.0068
          54    0.0511   -0.0828    0.0300    0.0258   -0.0234   -0.0442   -0.0024    0.0089
          55   -0.0153    0.0030   -0.0057   -0.0012    0.0219   -0.0090    0.0284    0.0562
          56   -0.0019    0.0048    0.0009   -0.0004   -0.0178    0.0020   -0.0357   -0.0216
          57   -0.0501   -0.0797    0.0251    0.0401   -0.0166   -0.0413   -0.0001    0.0099
          58   -0.0126    0.0008   -0.0066   -0.0098    0.0078   -0.0072    0.0060    0.0027
          59   -0.0022    0.0068    0.0009   -0.0023   -0.0278    0.0041   -0.0523   -0.0664
          60   -0.0917    0.0325   -0.0136    0.0014    0.0227    0.0341    0.0089    0.0013
          61    0.0158   -0.0015    0.0070    0.0220    0.0234   -0.0033   -0.0029   -0.0032
          62    0.0061   -0.0118   -0.0051   -0.0143    0.0181   -0.0055    0.0021    0.0012
          63   -0.0047   -0.0085    0.0041    0.0127   -0.0020    0.0080   -0.0036   -0.0025
          64    0.0275   -0.0089   -0.0381    0.0467    0.0500   -0.0109   -0.0181   -0.0059
          65    0.0099   -0.0236   -0.0309   -0.0045    0.0354   -0.0084   -0.0008   -0.0006
          66   -0.0040   -0.0059    0.0055    0.0110   -0.0032    0.0077   -0.0038   -0.0051
          67    0.0083    0.0029   -0.0223    0.0275    0.0067   -0.0014   -0.0085   -0.0014
          68   -0.0007   -0.0188   -0.0230   -0.0159    0.0129   -0.0029    0.0057    0.0003
          69   -0.0016   -0.0037    0.0015   -0.0013    0.0004    0.0024    0.0012   -0.0060
          70    0.0425   -0.0180   -0.0670    0.0651    0.0839   -0.0198   -0.0299   -0.0112
          71    0.0161   -0.0331   -0.0463    0.0096    0.0541   -0.0104   -0.0072   -0.0018
          72   -0.0053   -0.0081    0.0062    0.0124   -0.0035    0.0091   -0.0035   -0.0039
          73   -0.0056    0.0042   -0.0499    0.0284   -0.0363    0.0116   -0.0005    0.0014
          74   -0.0065   -0.0174   -0.0423   -0.0291   -0.0067   -0.0006    0.0165   -0.0003
          75   -0.0003   -0.0032   -0.0008   -0.0079    0.0031   -0.0004    0.0041   -0.0065
          76    0.0002    0.0055    0.0057    0.0205    0.0033    0.0009   -0.0116   -0.0001
          77   -0.0017   -0.0127   -0.0139   -0.0385    0.0140   -0.0086    0.0113   -0.0045
          78   -0.0016   -0.0060   -0.0013   -0.0062    0.0026    0.0012    0.0050   -0.0067
          79   -0.0210    0.0060   -0.0937    0.0266   -0.0908    0.0261    0.0132    0.0047
          80   -0.0147   -0.0165   -0.0655   -0.0298   -0.0357    0.0072    0.0237    0.0012
          81    0.0012   -0.0016   -0.0018   -0.0157    0.0055   -0.0033    0.0073   -0.0105
          82    0.0108    0.0085    0.0636    0.0139    0.0375   -0.0079   -0.0152   -0.0005
          83    0.0040   -0.0106    0.0173   -0.0390    0.0312   -0.0123    0.0076   -0.0044
          84   -0.0042   -0.0101    0.0000    0.0036    0.0002    0.0061    0.0020   -0.0063
          85   -0.0069    0.0064    0.0106    0.0159   -0.0009    0.0017   -0.0148   -0.0012
          86   -0.0036   -0.0086   -0.0124   -0.0454    0.0122   -0.0109    0.0101   -0.0055
          87   -0.0005   -0.0041   -0.0019   -0.0082    0.0029   -0.0001    0.0052   -0.0070
          88    0.0104    0.0176    0.1380    0.0010    0.0588   -0.0138   -0.0237   -0.0001
          89    0.0047   -0.0068    0.0525   -0.0600    0.0464   -0.0195    0.0107   -0.0079
          90   -0.0046   -0.0094    0.0007    0.0111   -0.0023    0.0081   -0.0019   -0.0040
          91   -0.0075    0.0242    0.0598   -0.0148   -0.0138   -0.0031   -0.0018    0.0099
          92   -0.0136   -0.0177    0.0245   -0.0340    0.0010    0.0056    0.0136   -0.0182
          93    0.0013    0.0013   -0.0029   -0.0039    0.0019   -0.0031   -0.0012    0.0081
          94    0.0156    0.0228    0.0469    0.0127    0.0418   -0.0221   -0.0302    0.0270
          95   -0.0042   -0.0262    0.0200   -0.0152    0.0303    0.0027    0.0023   -0.0300
          96   -0.0011   -0.0032   -0.0010   -0.0022    0.0002    0.0015    0.0017   -0.0042
          97    0.0089   -0.0130   -0.0023   -0.0153   -0.0022    0.0041   -0.0140    0.0243
          98    0.0092    0.0065    0.0089    0.0238    0.0014    0.0048    0.0282   -0.0181
          99   -0.0046    0.0069   -0.0021   -0.0020    0.0070    0.0229    0.0000    0.0042
         100    0.0067   -0.0065   -0.0048   -0.0199    0.0029    0.0280   -0.0188    0.0256
         101    0.0234   -0.0002    0.0129    0.0231   -0.0171   -0.0141    0.0175   -0.0514
         102    0.0021   -0.0063    0.0030    0.0058   -0.0046   -0.0197    0.0049   -0.0001
         103    0.0341   -0.0314    0.0038   -0.0196   -0.0227   -0.0090   -0.0401    0.0120
[...]
 T-DIPOLE    5.0335        C 12 --  C 13           +9.9% ( 45.1%)    95.3%
 TRAVEL      0.0588        C  8 --  C 13           +8.3% ( 41.3%)     0.9%
 RED. MASS   1.3464        C  5 --  C  6           +8.1% ( 40.9%)   100.0%
 EFF. MASS  12.1089

 VIBRATION   83   83A       ATOM PAIR        ENERGY CONTRIBUTION    RADIAL
 FREQ.      1614.88        N 33 --  O 34          +34.6% ( 83.2%)    87.8%
 T-DIPOLE   10.7183        N 33 --  O 35          +34.5% ( 83.1%)    91.6%
 TRAVEL      0.0539        C  7 --  N 33          +20.5% ( 64.1%)     1.2%
 RED. MASS   6.2345        O 34 --  O 35           +6.3% ( 35.5%)     0.1%
 EFF. MASS  14.3882

 VIBRATION   84   84A       ATOM PAIR        ENERGY CONTRIBUTION    RADIAL
 FREQ.      1633.14        C 25 --  C 26          +18.9% ( 60.5%)    88.3%
 T-DIPOLE    4.3453        C 26 --  C 28          +15.2% ( 54.3%)    75.5%
 TRAVEL      0.0590        C 21 --  C 22          +12.7% ( 49.6%)    94.8%
 RED. MASS   2.4880        C 22 --  C 23          +11.0% ( 46.3%)    92.6%
 EFF. MASS  11.8586        C 26 --  H 29          +10.2% ( 44.5%)     0.2%

 VIBRATION   85   85A       ATOM PAIR        ENERGY CONTRIBUTION    RADIAL
 FREQ.      1644.88        C 23 --  C 25          +17.1% ( 57.1%)    98.3%
 T-DIPOLE    3.5066        C 21 --  C 28          +17.1% ( 57.0%)    99.8%
 TRAVEL      0.0590        C 22 --  C 23          +13.1% ( 50.0%)    58.0%
 RED. MASS   2.4880        C 21 --  C 22          +11.0% ( 45.8%)    43.1%
 EFF. MASS  11.7660

 VIBRATION   86   86A       ATOM PAIR        ENERGY CONTRIBUTION    RADIAL
 FREQ.      1657.21        C 10 --  C 11          +12.9% ( 51.3%)    99.4%
 T-DIPOLE    2.1150        C  4 --  C  5          +10.0% ( 45.4%)    99.5%
 TRAVEL      0.0584        C  4 --  C  8           +8.4% ( 41.4%)    45.6%
 RED. MASS   1.3784        C  9 --  C 10           +7.8% ( 40.1%)    47.1%
 EFF. MASS  11.9408

 VIBRATION   87   87A       ATOM PAIR        ENERGY CONTRIBUTION    RADIAL
 FREQ.      1659.82        C  6 --  C  7          +13.5% ( 51.7%)    97.2%
 T-DIPOLE    2.2705        C 10 --  C 11          +12.0% ( 48.7%)   100.0%
 TRAVEL      0.0584        C  4 --  C  5           +9.8% ( 43.9%)    97.6%
 RED. MASS   1.4955        C  7 --  C  9           +6.5% ( 35.8%)    59.5%
 EFF. MASS  11.9130

 VIBRATION   88   88A       ATOM PAIR        ENERGY CONTRIBUTION    RADIAL
 FREQ.      1692.01        C 14 --  O 15          +26.6% ( 70.5%)    98.7%
 T-DIPOLE   11.1222        C  2 --  O  3          +26.5% ( 70.4%)    98.7%
 TRAVEL      0.0545        C 13 --  C 14          +11.8% ( 46.9%)    56.1%
 RED. MASS   3.3065        C  2 --  C  4          +11.7% ( 46.7%)    56.2%
 EFF. MASS  13.4394        N  1 --  C 14          +11.1% ( 45.5%)     4.6%
                           N  1 --  C  2          +10.9% ( 45.2%)     5.9%

 VIBRATION   89   89A       ATOM PAIR        ENERGY CONTRIBUTION    RADIAL
 FREQ.      1749.43        C  2 --  O  3          +26.1% ( 68.1%)   100.0%
 T-DIPOLE    6.6885        C 14 --  O 15          +25.4% ( 67.2%)   100.0%
 TRAVEL      0.0538        C  2 --  C  4          +11.6% ( 45.4%)    28.4%
 RED. MASS   3.2319        C 13 --  C 14          +11.3% ( 44.8%)    28.3%
 EFF. MASS  13.3092        N  1 --  C  2          +11.3% ( 44.8%)    19.6%
                           N  1 --  C 14          +10.9% ( 44.1%)    17.6%

 VIBRATION   90   90A       ATOM PAIR        ENERGY CONTRIBUTION    RADIAL
 FREQ.      2467.62        O 31 --  H 32          +99.2% ( 99.5%)    98.5%
 T-DIPOLE    2.1708        C 23 --  O 31           +0.4% (  6.2%)     3.5%
 TRAVEL      0.1434        C 23 --  C 25           +0.2% (  4.0%)    77.0%
 RED. MASS   0.9402        C 22 --  C 23           +0.1% (  3.7%)     0.2%
 EFF. MASS   1.3285

 VIBRATION   91   91A       ATOM PAIR        ENERGY CONTRIBUTION    RADIAL
 FREQ.      2694.64        C 10 --  H 18          +76.4% ( 88.4%)   100.0%
 T-DIPOLE    1.6229        C 12 --  H 20          +18.5% ( 43.5%)   100.0%
 TRAVEL      0.1343        C 11 --  H 19           +3.0% ( 17.6%)    99.2%
 RED. MASS   0.6016        C  9 --  C 10           +0.9% (  9.4%)    17.6%
 EFF. MASS   1.3884

 VIBRATION   92   92A       ATOM PAIR        ENERGY CONTRIBUTION    RADIAL
 FREQ.      2697.56        C  5 --  H 16          +77.6% ( 89.2%)   100.0%
 T-DIPOLE    1.3877        C  6 --  H 17          +12.1% ( 35.2%)    99.9%
 TRAVEL      0.1337        C 12 --  H 20           +6.6% ( 25.9%)   100.0%
 RED. MASS   0.6057        C 10 --  H 18           +1.4% ( 11.9%)   100.0%
 EFF. MASS   1.3993

 VIBRATION   93   93A       ATOM PAIR        ENERGY CONTRIBUTION    RADIAL
 FREQ.      2699.40        C 12 --  H 20          +70.4% ( 84.9%)   100.0%
 T-DIPOLE    0.9872        C 10 --  H 18          +13.7% ( 37.4%)    99.9%
 TRAVEL      0.1329        C  5 --  H 16           +5.0% ( 22.7%)   100.0%
 RED. MASS   0.5082        C 11 --  H 19           +4.7% ( 21.9%)   100.0%
 EFF. MASS   1.4141

 VIBRATION   94   94A       ATOM PAIR        ENERGY CONTRIBUTION    RADIAL
 FREQ.      2714.26        C  6 --  H 17          +80.4% ( 90.5%)   100.0%
 T-DIPOLE    1.9304        C  5 --  H 16          +14.2% ( 38.1%)    99.8%
 TRAVEL      0.1327        C 11 --  H 19           +2.6% ( 16.1%)   100.0%
 RED. MASS   0.6502        C  5 --  C  6           +1.1% ( 10.8%)    61.6%
 EFF. MASS   1.4101

 VIBRATION   95   95A       ATOM PAIR        ENERGY CONTRIBUTION    RADIAL
 FREQ.      2724.46        C 26 --  H 29          +77.7% ( 89.2%)   100.0%
 T-DIPOLE    0.6119        C 28 --  H 30          +15.3% ( 39.5%)    99.9%
 TRAVEL      0.1336        C 25 --  H 27           +4.7% ( 21.9%)    99.6%
 RED. MASS   0.6108        C 26 --  C 28           +0.9% (  9.8%)     3.5%
 EFF. MASS   1.3858

 VIBRATION   96   96A       ATOM PAIR        ENERGY CONTRIBUTION    RADIAL
 FREQ.      2725.19        C 11 --  H 19          +87.5% ( 94.5%)   100.0%
 T-DIPOLE    1.3865        C 10 --  H 18           +6.2% ( 25.1%)    99.9%
 TRAVEL      0.1320        C 12 --  H 20           +1.8% ( 13.5%)    98.7%
 RED. MASS   0.7495        C  6 --  H 17           +1.4% ( 12.1%)   100.0%
 EFF. MASS   1.4202

 VIBRATION   97   97A       ATOM PAIR        ENERGY CONTRIBUTION    RADIAL
 FREQ.      2732.49        C 22 --  H 24          +60.2% ( 78.4%)   100.0%
 T-DIPOLE    1.9766        C 28 --  H 30          +33.7% ( 58.7%)   100.0%
 TRAVEL      0.1336        C 26 --  H 29           +3.7% ( 19.3%)    99.8%
 RED. MASS   0.4634        C 22 --  C 23           +0.7% (  8.2%)    26.6%
 EFF. MASS   1.3823

 VIBRATION   98   98A       ATOM PAIR        ENERGY CONTRIBUTION    RADIAL
 FREQ.      2734.64        C 25 --  H 27          +53.0% ( 73.5%)   100.0%
 T-DIPOLE    1.7075        C 28 --  H 30          +24.9% ( 50.4%)   100.0%
 TRAVEL      0.1337        C 22 --  H 24          +19.5% ( 44.6%)   100.0%
 RED. MASS   0.3689        C 23 --  C 25           +0.5% (  7.5%)    19.6%
 EFF. MASS   1.3799

 VIBRATION   99   99A       ATOM PAIR        ENERGY CONTRIBUTION    RADIAL
 FREQ.      2747.80        C 25 --  H 27          +40.0% ( 63.7%)   100.0%
 T-DIPOLE    0.6766        C 28 --  H 30          +23.9% ( 49.3%)   100.0%
 TRAVEL      0.1297        C 22 --  H 24          +17.6% ( 42.4%)   100.0%
 RED. MASS   0.2671        C 26 --  H 29          +15.8% ( 40.1%)   100.0%
 EFF. MASS   1.4597

 SYMMETRY NUMBER FOR POINT-GROUP C1  =  1


          SYSTEM IS A GROUND STATE


                                                                                                                                                                                                                                                 
 SJ000001185-1_T001S001I001C01: Free energy calculation                                                                                                                                                                                          


          MOLECULE IS NOT LINEAR

          THERE ARE 99 GENUINE VIBRATIONS IN THIS SYSTEM
          THIS THERMODYNAMICS CALCULATION IS LIMITED TO
          MOLECULES WHICH HAVE NO INTERNAL ROTATIONS




                    CALCULATED THERMODYNAMIC PROPERTIES
                                          *
   TEMP. (K)   PARTITION FUNCTION   H.O.F.    ENTHALPY  HEAT CAPACITY ENTROPY
                                   KCAL/MOL   CAL/MOLE    CAL/K/MOL  CAL/K/MOL


 298.00  VIB.     0.1178D+08                 10501.3098    70.4505    67.5946
         ROT.     0.1050D+08                   888.2813     2.9808    35.1081
         INT.     0.1237D+15                 11389.5911    73.4313   102.7027
         TRA.     0.5909D+28                  1480.4688     4.9680    43.3131
         TOT.                      -70.963   12870.0600    78.3994   146.0158

 200.00  VIB.     0.3481D+05                  4711.4063    47.4908    44.3387
         ROT.     0.5774D+07                   596.1620     2.9808    33.9194
         INT.     0.2010D+12                  5307.5683    50.4716    78.2581
         TRA.     0.3249D+28                   993.6033     4.9680    41.3320
         TOT.                      -77.532    6301.1715    55.4397   119.5901

 210.00  VIB.     0.6299D+05                  5198.2852    49.8839    46.7138
         ROT.     0.6212D+07                   625.9700     2.9808    34.0648
         INT.     0.3913D+12                  5824.2552    52.8647    80.7786
         TRA.     0.3495D+28                  1043.2834     4.9680    41.5744
         TOT.                      -76.965    6867.5386    57.8327   122.3530

 220.00  VIB.     0.1140D+06                  5709.0603    52.2699    49.0895
         ROT.     0.6661D+07                   655.7781     2.9808    34.2035
         INT.     0.7595D+12                  6364.8384    55.2507    83.2930
         TRA.     0.3748D+28                  1092.9636     4.9680    41.8055
         TOT.                      -76.375    7457.8020    60.2187   125.0984

 230.00  VIB.     0.2065D+06                  6243.6539    54.6473    51.4654
         ROT.     0.7121D+07                   685.5862     2.9808    34.3360
         INT.     0.1470D+13                  6929.2402    57.6281    85.8014
         TRA.     0.4007D+28                  1142.6437     4.9680    42.0263
         TOT.                      -75.761    8071.8839    62.5962   127.8278

 240.00  VIB.     0.3740D+06                  6801.9731    57.0147    53.8412
         ROT.     0.7590D+07                   715.3943     2.9808    34.4629
         INT.     0.2839D+13                  7517.3674    59.9955    88.3041
         TRA.     0.4271D+28                  1192.3239     4.9680    42.2378
         TOT.                      -75.123    8709.6913    64.9635   130.5419

 250.00  VIB.     0.6776D+06                  7383.9081    59.3702    56.2165
         ROT.     0.8070D+07                   745.2024     2.9808    34.5846
         INT.     0.5468D+13                  8129.1105    62.3510    90.8011
         TRA.     0.4540D+28                  1242.0041     4.9680    42.4406
         TOT.                      -74.462    9371.1146    67.3190   133.2416

 260.00  VIB.     0.1228D+07                  7989.3310    61.7120    58.5907
         ROT.     0.8558D+07                   775.0105     2.9808    34.7015
         INT.     0.1051D+14                  8764.3415    64.6928    93.2922
         TRA.     0.4815D+28                  1291.6842     4.9680    42.6354
         TOT.                      -73.777   10056.0257    69.6608   135.9276

 270.00  VIB.     0.2226D+07                  8618.0948    64.0380    60.9634
         ROT.     0.9057D+07                   804.8186     2.9808    34.8140
         INT.     0.2016D+14                  9422.9134    67.0188    95.7774
         TRA.     0.5096D+28                  1341.3644     4.9680    42.8229
         TOT.                      -73.069   10764.2778    71.9869   138.6003

 280.00  VIB.     0.4036D+07                  9270.0327    66.3464    63.3341
         ROT.     0.9565D+07                   834.6267     2.9808    34.9224
         INT.     0.3860D+14                 10104.6594    69.3272    98.2565
         TRA.     0.5382D+28                  1391.0445     4.9680    43.0036
         TOT.                      -72.337   11495.7039    74.2953   141.2601

 290.00  VIB.     0.7317D+07                  9944.9576    68.6351    65.7023
         ROT.     0.1008D+08                   864.4348     2.9808    35.0270
         INT.     0.7377D+14                 10809.3924    71.6159   100.7292
         TRA.     0.5673D+28                  1440.7247     4.9680    43.1779
         TOT.                      -71.583   12250.1172    76.5839   143.9072

 300.00  VIB.     0.1327D+08                 10642.6626    70.9021    68.0674
         ROT.     0.1061D+08                   894.2429     2.9808    35.1280
         INT.     0.1407D+15                 11536.9055    73.8829   103.1954
         TRA.     0.5968D+28                  1490.4049     4.9680    43.3464
         TOT.                      -70.806   13027.3104    78.8509   146.5417

 310.00  VIB.     0.2406D+08                 11362.9211    73.1455    70.4289
         ROT.     0.1114D+08                   924.0510     2.9808    35.2258
         INT.     0.2680D+15                 12286.9721    76.1263   105.6546
         TRA.     0.6269D+28                  1540.0850     4.9680    43.5093
         TOT.                      -70.006   13827.0572    81.0943   149.1639

 320.00  VIB.     0.4361D+08                 12105.4879    75.3635    72.7863
         ROT.     0.1169D+08                   953.8591     2.9808    35.3204
         INT.     0.5096D+15                 13059.3470    78.3443   108.1067
         TRA.     0.6575D+28                  1589.7652     4.9680    43.6670
         TOT.                      -69.184   14649.1122    83.3123   151.7736

 330.00  VIB.     0.7905D+08                 12870.0999    77.5543    75.1389
         ROT.     0.1224D+08                   983.6672     2.9808    35.4121
         INT.     0.9675D+15                 13853.7671    80.5351   110.5510
         TRA.     0.6886D+28                  1639.4454     4.9680    43.8199
         TOT.                      -68.340   15493.2125    85.5031   154.3709

 340.00  VIB.     0.1433D+09                 13656.4780    79.7164    77.4863
         ROT.     0.1280D+08                  1013.4753     2.9808    35.5011
         INT.     0.1834D+16                 14669.9533    82.6972   112.9874
         TRA.     0.7201D+28                  1689.1255     4.9680    43.9682
         TOT.                      -67.474   16359.0788    87.6652   156.9556

 350.00  VIB.     0.2596D+09                 14464.3278    81.8484    79.8279
         ROT.     0.1337D+08                  1043.2834     2.9808    35.5875
         INT.     0.3470D+16                 15507.6112    84.8292   115.4155
         TRA.     0.7521D+28                  1738.8057     4.9680    44.1122
         TOT.                      -66.586   17246.4169    89.7973   159.5276

 360.00  VIB.     0.4702D+09                 15293.3418    83.9491    82.1632
         ROT.     0.1394D+08                  1073.0915     2.9808    35.6715
         INT.     0.6556D+16                 16366.4334    86.9299   117.8347
         TRA.     0.7846D+28                  1788.4859     4.9680    44.2521
         TOT.                      -65.678   18154.9192    91.8979   162.0868

 370.00  VIB.     0.8512D+09                 16143.2008    86.0172    84.4916
         ROT.     0.1453D+08                  1102.8996     2.9808    35.7532
         INT.     0.1237D+17                 17246.1004    88.9980   120.2448
         TRA.     0.8175D+28                  1838.1660     4.9680    44.3883
         TOT.                      -64.749   19084.2664    93.9661   164.6330

 380.00  VIB.     0.1540D+10                 17013.5750    88.0520    86.8126
         ROT.     0.1512D+08                  1132.7077     2.9808    35.8327
         INT.     0.2330D+17                 18146.2827    91.0328   122.6453
         TRA.     0.8509D+28                  1887.8462     4.9680    44.5207
         TOT.                      -63.799   20034.1289    96.0008   167.1660

 390.00  VIB.     0.2786D+10                 17904.1267    90.0526    89.1258
         ROT.     0.1572D+08                  1162.5158     2.9808    35.9101
         INT.     0.4381D+17                 19066.6425    93.0334   125.0358
         TRA.     0.8847D+28                  1937.5263     4.9680    44.6498
         TOT.                      -62.829   21004.1688    98.0014   169.6856

 400.00  VIB.     0.5037D+10                 18814.5107    92.0184    91.4305
         ROT.     0.1633D+08                  1192.3239     2.9808    35.9855
         INT.     0.8226D+17                 20006.8346    94.9992   127.4161
         TRA.     0.9189D+28                  1987.2065     4.9680    44.7756
         TOT.                      -61.839   21994.0411    99.9672   172.1917

   *: NOTE: HEATS OF FORMATION ARE RELATIVE TO THE
             ELEMENTS IN THEIR STANDARD STATE AT 298K
              (=  Standard Enthalpy of Formation).
            Heat of Formation at T is calculated as [Escf + (HT - H298.15)-.

            Hvib:  Zero-point energy is not included.
                   Wi < 100 cm-1 are not included.
            Hrot = (3/2)RT
            Htra = (3/2)RT + pV = (5/2)RT

            Heat capacity is Cp, not Cv

                 See Section 8.20 in Manual for further information.   (by TH).

           FORCE CONSTANT IN CARTESIAN COORDINATES (Millidynes/A)

    ATOM   CHEMICAL       X               Y               Z
   NUMBER   SYMBOL  FORCE CONSTANT  FORCE CONSTANT  FORCE CONSTANT

      1       N        9.916912        9.991914        1.311114
      2       C        8.950919       12.991940        2.381152
      3       O        3.955288        9.766777        0.342456
      4       C       11.516439        9.890320        2.218467
      5       C       10.790133        8.955783        2.213004
      6       C        9.251529       10.400542        2.191277
      7       C       10.244565       10.156895        2.439743
      8       C       10.787728       10.600402        2.364136
      9       C       10.380347       10.353491        2.321275
     10       C       11.221183        8.652023        2.232827
     11       C       10.974032        8.897035        2.111214
     12       C        9.348132       10.343638        2.260659
     13       C       10.633577       10.716373        2.147941
     14       C       13.525806        8.317876        2.425818
     15       O       12.410580        1.312357        0.382692
     16       H        1.821079        3.085313        0.364151
     17       H        4.111627        0.832118        0.347895
     18       H        1.566593        3.412569        0.360524
     19       H        1.865350        3.113644        0.381055
     20       H        4.060368        0.835721        0.376828
     21       C        4.433242        8.567932       10.790178
     22       C        3.825161        8.228372        9.872414
     23       C        4.033748        8.912670       10.330847
     24       H        0.666668        1.339256        3.324387
     25       C        3.689666        7.886572       10.402841
     26       C        3.998868        8.227434        9.798049
     27       H        1.183877        3.344987        0.794098
     28       C        3.791818        8.292268        9.642401
     29       H        0.675367        1.369981        3.319970
     30       H        0.601938        1.367617        3.379779
     31       O        1.176413        3.350696        6.552380
     32       H        0.366172        1.024669        2.952177
     33       N       10.164388       10.087714        6.517509
     34       O        8.867523        1.450022        3.491234
     35       O        2.913128        7.270410        3.386761



 TOTAL CPU TIME:            28.02 SECONDS

 == MOPAC DONE ==
