 *******************************************************************************
 ** Site#:  958            For non-commercial use only         Version 9.015L **
 *******************************************************************************
 ** Cite this work as: MOPAC2009, James J. P. Stewart, Stewart Computational  **
 ** Chemistry, Version 9.015L web: HTTP://OpenMOPAC.net                       **
 *******************************************************************************
 **                                                                           **
 **                                MOPAC2009                                  **
 **                                                                           **
 *******************************************************************************

                            PM6 CALCULATION RESULTS


 *******************************************************************************
 *  CALCULATION DONE:                                Tue Sep  6 16:26:50 2011  *
 *  PM6      - The PM6 Hamiltonian to be used
 *
 *
 *
 *                 CHARGE ON SYSTEM =     0
 *
 *
 *
 *  EPS= 78.400
 *  RSOLV=  1.300
 *  LET      - OVERRIDE SOME SAFETY CHECKS
 *  XYZ      - CARTESIAN COORDINATE SYSTEM TO BE USED
 *  T=       - A TIME OF  0.3E+08 SECONDS REQUESTED
 *  DUMP=N   - RESTART FILE WRITTEN EVERY  4320.000 SECONDS
 *  DDMIN=   - MINIMUM TRUST RADIUS  0.000 ANG/RAD
 *  GNORM=   - EXIT WHEN GRADIENT NORM DROPS BELOW .150    
 *  RELSCF   - DEFAULT SCF CRITERION MULTIPLIED BY   0.100    
 *             (DEFAULT SCFCRT= 0.00010)
 *  SYBYL    - OUTPUT SYBYL FILE
 *  MULLIK   - THE MULLIKEN ANALYSIS TO BE PERFORMED
 *******************************************************************************
 PM6 T=31535643 DUMP=4320 XYZ EPS=78.40 RSOLV=1.30 MULLIK SYBYL +
 CHARGE=0 RELSCF=0.1 LET DDMIN=0.0 GNORM=0.15
 SJ000002349-1_T001S001I001C04: Geometry optimization step

   ATOM   CHEMICAL          X               Y              Z
  NUMBER   SYMBOL      (ANGSTROMS)     (ANGSTROMS)    (ANGSTROMS)
 
     1       C          0.0020000  *   -0.004000  *    0.002000  *
     2       C          0.7400000  *   -0.523000  *    1.237000  *
     3       C          0.0590000  *   -0.026000  *    2.491000  *
     4       C         -1.2710000  *    0.180000  *    2.501000  *
     5       C         -1.9460000  *    0.681000  *    3.753000  *
     6       C         -0.9400000  *    1.312000  *    4.684000  *
     7       C          0.3710000  *    1.039000  *    4.540000  *
     8       C          1.3830000  *    1.674000  *    5.465000  *
     9       C          0.8960000  *    3.058000  *    5.898000  *
    10       C         -0.4310000  *    2.853000  *    6.632000  *
    11       C         -1.3940000  *    2.182000  *    5.692000  *
    12       O         -2.5850000  *    2.395000  *    5.804000  *
    13       O          0.8040000  *    0.201000  *    3.585000  *
    14       C         -2.0520000  *   -0.062000  *    1.356000  *
    15       O         -3.2520000  *    0.122000  *    1.402000  *
    16       C         -1.4270000  *   -0.546000  *    0.076000  *
    17       H          0.7340000  *   -1.613000  *    1.230000  *
    18       H          1.7700000  *   -0.167000  *    1.219000  *
    19       H         -2.6990000  *    1.421000  *    3.484000  *
    20       H          1.5130000  *    1.044000  *    6.345000  *
    21       H          2.3360000  *    1.771000  *    4.946000  *
    22       H         -0.2730000  *    2.222000  *    7.507000  *
    23       H         -0.8320000  *    3.818000  *    6.942000  *
    24       H         -2.0030000  *   -0.181000  *   -0.775000  *
    25       H         -1.4080000  *   -1.636000  *    0.066000  *
    26       C         -2.6130000  *   -0.474000  *    4.454000  *
    27       C         -3.9840000  *   -0.457000  *    4.668000  *
    28       C         -4.5970000  *   -1.520000  *    5.312000  *
    29       C         -3.8390000  *   -2.598000  *    5.742000  *
    30       H         -5.6640000  *   -1.509000  *    5.479000  *
    31       C         -2.4680000  *   -2.611000  *    5.526000  *
    32       C         -1.8600000  *   -1.552000  *    4.879000  *
    33       H         -1.8770000  *   -3.450000  *    5.861000  *
    34       H         -0.7930000  *   -1.564000  *    4.711000  *
    35       O         -4.7250000  *    0.601000  *    4.245000  *
    36       H         -5.0660000  *    0.507000  *    3.344000  *
    37       O         -4.4370000  *   -3.642000  *    6.374000  *
    38       H         -4.7360000  *   -4.343000  *    5.779000  *
    39       C         -0.0190000  *    1.526000  *    0.010000  *
    40       H          1.0040000  *    1.903000  *    0.003000  *
    41       H         -0.5460000  *    1.887000  *   -0.873000  *
    42       H         -0.5290000  *    1.877000  *    0.907000  *
    43       C          0.6900000  *   -0.510000  *   -1.268000  *
    44       H          1.7130000  *   -0.137000  *   -1.300000  *
    45       H          0.7000000  *   -1.600000  *   -1.266000  *
    46       H          0.1450000  *   -0.153000  *   -2.142000  *
    47       C          1.9190000  *    3.701000  *    6.837000  *
    48       H          2.8740000  *    3.801000  *    6.320000  *
    49       H          1.5650000  *    4.686000  *    7.140000  *
    50       H          2.0470000  *    3.073000  *    7.719000  *
    51       C          0.6850000  *    3.945000  *    4.669000  *
    52       H         -0.0610000  *    3.490000  *    4.017000  *
    53       H          0.3390000  *    4.928000  *    4.987000  *
    54       H          1.6260000  *    4.048000  *    4.129000  *
 


          CARTESIAN COORDINATES 

    NO.       ATOM         X         Y         Z

     1         C        0.0020   -0.0040    0.0020
     2         C        0.7400   -0.5230    1.2370
     3         C        0.0590   -0.0260    2.4910
     4         C       -1.2710    0.1800    2.5010
     5         C       -1.9460    0.6810    3.7530
     6         C       -0.9400    1.3120    4.6840
     7         C        0.3710    1.0390    4.5400
     8         C        1.3830    1.6740    5.4650
     9         C        0.8960    3.0580    5.8980
    10         C       -0.4310    2.8530    6.6320
    11         C       -1.3940    2.1820    5.6920
    12         O       -2.5850    2.3950    5.8040
    13         O        0.8040    0.2010    3.5850
    14         C       -2.0520   -0.0620    1.3560
    15         O       -3.2520    0.1220    1.4020
    16         C       -1.4270   -0.5460    0.0760
    17         H        0.7340   -1.6130    1.2300
    18         H        1.7700   -0.1670    1.2190
    19         H       -2.6990    1.4210    3.4840
    20         H        1.5130    1.0440    6.3450
    21         H        2.3360    1.7710    4.9460
    22         H       -0.2730    2.2220    7.5070
    23         H       -0.8320    3.8180    6.9420
    24         H       -2.0030   -0.1810   -0.7750
    25         H       -1.4080   -1.6360    0.0660
    26         C       -2.6130   -0.4740    4.4540
    27         C       -3.9840   -0.4570    4.6680
    28         C       -4.5970   -1.5200    5.3120
    29         C       -3.8390   -2.5980    5.7420
    30         H       -5.6640   -1.5090    5.4790
    31         C       -2.4680   -2.6110    5.5260
    32         C       -1.8600   -1.5520    4.8790
    33         H       -1.8770   -3.4500    5.8610
    34         H       -0.7930   -1.5640    4.7110
    35         O       -4.7250    0.6010    4.2450
    36         H       -5.0660    0.5070    3.3440
    37         O       -4.4370   -3.6420    6.3740
    38         H       -4.7360   -4.3430    5.7790
    39         C       -0.0190    1.5260    0.0100
    40         H        1.0040    1.9030    0.0030
    41         H       -0.5460    1.8870   -0.8730
    42         H       -0.5290    1.8770    0.9070
    43         C        0.6900   -0.5100   -1.2680
    44         H        1.7130   -0.1370   -1.3000
    45         H        0.7000   -1.6000   -1.2660
    46         H        0.1450   -0.1530   -2.1420
    47         C        1.9190    3.7010    6.8370
    48         H        2.8740    3.8010    6.3200
    49         H        1.5650    4.6860    7.1400
    50         H        2.0470    3.0730    7.7190
    51         C        0.6850    3.9450    4.6690
    52         H       -0.0610    3.4900    4.0170
    53         H        0.3390    4.9280    4.9870
    54         H        1.6260    4.0480    4.1290

 General Reference for PM6:
 "Optimization of Parameters for Semiempirical Methods V: Modification of NDDO Approximations
 and Application to 70 Elements", J. J. P. Stewart, J. Mol. Mod., 13, 1173-1213 (2007)
 URL: http://www.springerlink.com/content/ar33482301010477/fulltext.pdf

           Empirical Formula: C23 H26 O5  =    54 atoms



      MOLECULAR POINT GROUP   :   C1  


      RHF CALCULATION, NO. OF DOUBLY OCCUPIED LEVELS =   74

      Geometry optimization using EF
  SCF CRITERION =    0.1000E-04

          DIAGONAL MATRIX USED AS START HESSIAN

 CYCLE:     1 TIME:   0.267 TIME LEFT: 16.53W  GRAD.:   190.837 HEAT:-192.1597
 CYCLE:     2 TIME:   0.147 TIME LEFT: 16.53W  GRAD.:   181.934 HEAT:-200.6418
 CYCLE:     3 TIME:   0.145 TIME LEFT: 16.53W  GRAD.:   177.686 HEAT:-206.1887
 CYCLE:     4 TIME:   0.146 TIME LEFT: 16.53W  GRAD.:   289.029 HEAT:-195.5547
 CYCLE:     5 TIME:   0.145 TIME LEFT: 16.53W  GRAD.:   228.387 HEAT:-202.9867
 CYCLE:     6 TIME:   0.146 TIME LEFT: 16.53W  GRAD.:   297.807 HEAT:-197.6229
 CYCLE:     7 TIME:   0.147 TIME LEFT: 16.53W  GRAD.:   252.134 HEAT:-199.4246
 CYCLE:     8 TIME:   0.155 TIME LEFT: 16.53W  GRAD.:   179.430 HEAT:-207.5353
 CYCLE:     9 TIME:   0.167 TIME LEFT: 16.53W  GRAD.:   302.025 HEAT:-196.9537
 CYCLE:    10 TIME:   0.166 TIME LEFT: 16.53W  GRAD.:   267.448 HEAT:-200.3663
 CYCLE:    11 TIME:   0.154 TIME LEFT: 16.53W  GRAD.:   267.701 HEAT:-200.7838
 CYCLE:    12 TIME:   0.145 TIME LEFT: 16.53W  GRAD.:   293.616 HEAT:-198.8845
 CYCLE:    13 TIME:   0.146 TIME LEFT: 16.53W  GRAD.:   274.518 HEAT:-201.4206
 CYCLE:    14 TIME:   0.145 TIME LEFT: 16.53W  GRAD.:   268.632 HEAT:-200.3538
 CYCLE:    15 TIME:   0.148 TIME LEFT: 16.53W  GRAD.:   193.106 HEAT:-206.1674
 CYCLE:    16 TIME:   0.144 TIME LEFT: 16.53W  GRAD.:   276.252 HEAT:-201.9340
 CYCLE:    17 TIME:   0.148 TIME LEFT: 16.53W  GRAD.:   276.135 HEAT:-198.5573
 CYCLE:    18 TIME:   0.146 TIME LEFT: 16.53W  GRAD.:   262.825 HEAT:-203.1082
 CYCLE:    19 TIME:   0.143 TIME LEFT: 16.53W  GRAD.:   228.921 HEAT:-204.3336
 CYCLE:    20 TIME:   0.145 TIME LEFT: 16.53W  GRAD.:   272.301 HEAT:-200.9556
 CYCLE:    21 TIME:   0.148 TIME LEFT: 16.53W  GRAD.:   232.194 HEAT:-204.8133
 CYCLE:    22 TIME:   0.155 TIME LEFT: 16.53W  GRAD.:   197.866 HEAT:-207.5977
 CYCLE:    23 TIME:   0.147 TIME LEFT: 16.53W  GRAD.:   272.565 HEAT:-201.3141
 CYCLE:    24 TIME:   0.144 TIME LEFT: 16.53W  GRAD.:   304.787 HEAT:-199.3968
 CYCLE:    25 TIME:   0.147 TIME LEFT: 16.53W  GRAD.:   269.804 HEAT:-203.6748
 CYCLE:    26 TIME:   0.146 TIME LEFT: 16.53W  GRAD.:   242.139 HEAT:-204.6110
 CYCLE:    27 TIME:   0.149 TIME LEFT: 16.53W  GRAD.:   283.179 HEAT:-200.9163
 CYCLE:    28 TIME:   0.170 TIME LEFT: 16.53W  GRAD.:   208.733 HEAT:-207.8771
 CYCLE:    29 TIME:   0.169 TIME LEFT: 16.53W  GRAD.:   247.367 HEAT:-204.7648
 CYCLE:    30 TIME:   0.163 TIME LEFT: 16.53W  GRAD.:   231.014 HEAT:-206.2776
 CYCLE:    31 TIME:   0.154 TIME LEFT: 16.53W  GRAD.:   172.058 HEAT:-209.4095
 CYCLE:    32 TIME:   0.147 TIME LEFT: 16.53W  GRAD.:   221.107 HEAT:-207.9495
 CYCLE:    33 TIME:   0.144 TIME LEFT: 16.53W  GRAD.:   148.537 HEAT:-212.9881
 CYCLE:    34 TIME:   0.143 TIME LEFT: 16.53W  GRAD.:   208.759 HEAT:-207.0945
 CYCLE:    35 TIME:   0.151 TIME LEFT: 16.53W  GRAD.:   145.463 HEAT:-213.9121
 CYCLE:    36 TIME:   0.142 TIME LEFT: 16.53W  GRAD.:   185.999 HEAT:-209.6793
 CYCLE:    37 TIME:   0.150 TIME LEFT: 16.53W  GRAD.:   160.090 HEAT:-212.1407
 CYCLE:    38 TIME:   0.144 TIME LEFT: 16.53W  GRAD.:   155.213 HEAT:-212.0808
 CYCLE:    39 TIME:   0.150 TIME LEFT: 16.53W  GRAD.:   183.101 HEAT:-211.1574
 CYCLE:    40 TIME:   0.160 TIME LEFT: 16.53W  GRAD.:   138.370 HEAT:-214.1317
 CYCLE:    41 TIME:   0.143 TIME LEFT: 16.53W  GRAD.:   209.634 HEAT:-207.5883
 CYCLE:    42 TIME:   0.144 TIME LEFT: 16.53W  GRAD.:   123.897 HEAT:-215.3077
 CYCLE:    43 TIME:   0.145 TIME LEFT: 16.53W  GRAD.:   219.111 HEAT:-208.7735
 CYCLE:    44 TIME:   0.159 TIME LEFT: 16.53W  GRAD.:   126.735 HEAT:-215.4691
 CYCLE:    45 TIME:   0.158 TIME LEFT: 16.53W  GRAD.:   181.438 HEAT:-212.5663
 CYCLE:    46 TIME:   0.146 TIME LEFT: 16.53W  GRAD.:   109.324 HEAT:-217.6956
 CYCLE:    47 TIME:   0.144 TIME LEFT: 16.53W  GRAD.:   225.757 HEAT:-209.7060
 CYCLE:    48 TIME:   0.145 TIME LEFT: 16.53W  GRAD.:    79.219 HEAT:-220.1228
 CYCLE:    49 TIME:   0.144 TIME LEFT: 16.53W  GRAD.:   219.737 HEAT:-207.7299
 CYCLE:    50 TIME:   0.144 TIME LEFT: 16.53W  GRAD.:    48.115 HEAT:-221.8386
 CYCLE:    51 TIME:   0.142 TIME LEFT: 16.53W  GRAD.:   234.248 HEAT:-204.3807
 CYCLE:    52 TIME:   0.154 TIME LEFT: 16.53W  GRAD.:    63.793 HEAT:-221.5296
 CYCLE:    53 TIME:   0.146 TIME LEFT: 16.53W  GRAD.:   287.331 HEAT:-194.9626
 CYCLE:    54 TIME:   0.151 TIME LEFT: 16.53W  GRAD.:    74.613 HEAT:-221.3213
 CYCLE:    55 TIME:   0.141 TIME LEFT: 16.53W  GRAD.:   281.784 HEAT:-193.5300
 CYCLE:    56 TIME:   0.153 TIME LEFT: 16.53W  GRAD.:    49.099 HEAT:-222.5933
 CYCLE:    57 TIME:   0.141 TIME LEFT: 16.53W  GRAD.:   229.795 HEAT:-203.5440
 CYCLE:    58 TIME:   0.153 TIME LEFT: 16.53W  GRAD.:    39.471 HEAT:-223.0466
 CYCLE:    59 TIME:   0.143 TIME LEFT: 16.53W  GRAD.:   167.174 HEAT:-212.0034
 CYCLE:    60 TIME:   0.146 TIME LEFT: 16.53W  GRAD.:    36.743 HEAT:-223.4687
 CYCLE:    61 TIME:   0.141 TIME LEFT: 16.53W  GRAD.:   152.599 HEAT:-214.2737
 CYCLE:    62 TIME:   0.141 TIME LEFT: 16.53W  GRAD.:    35.500 HEAT:-223.6072
 CYCLE:    63 TIME:   0.143 TIME LEFT: 16.53W  GRAD.:   146.561 HEAT:-214.8585
 CYCLE:    64 TIME:   0.143 TIME LEFT: 16.53W  GRAD.:    30.155 HEAT:-224.0158
 CYCLE:    65 TIME:   0.141 TIME LEFT: 16.53W  GRAD.:   128.395 HEAT:-217.6376
 CYCLE:    66 TIME:   0.142 TIME LEFT: 16.53W  GRAD.:    24.879 HEAT:-224.3952
 CYCLE:    67 TIME:   0.143 TIME LEFT: 16.53W  GRAD.:   104.556 HEAT:-220.0860
 CYCLE:    68 TIME:   0.143 TIME LEFT: 16.53W  GRAD.:    26.954 HEAT:-224.6372
 CYCLE:    69 TIME:   0.143 TIME LEFT: 16.53W  GRAD.:   107.731 HEAT:-219.8614
 CYCLE:    70 TIME:   0.144 TIME LEFT: 16.53W  GRAD.:    18.649 HEAT:-225.1025
 CYCLE:    71 TIME:   0.136 TIME LEFT: 16.53W  GRAD.:    88.064 HEAT:-222.4197
 CYCLE:    72 TIME:   0.145 TIME LEFT: 16.53W  GRAD.:    17.333 HEAT:-225.5142
 CYCLE:    73 TIME:   0.141 TIME LEFT: 16.53W  GRAD.:    71.850 HEAT:-223.7524
 CYCLE:    74 TIME:   0.149 TIME LEFT: 16.53W  GRAD.:    22.947 HEAT:-225.8969
 CYCLE:    75 TIME:   0.141 TIME LEFT: 16.53W  GRAD.:    97.448 HEAT:-222.3811
 CYCLE:    76 TIME:   0.144 TIME LEFT: 16.53W  GRAD.:    21.405 HEAT:-226.4723
 CYCLE:    77 TIME:   0.141 TIME LEFT: 16.53W  GRAD.:    89.802 HEAT:-223.9495
 CYCLE:    78 TIME:   0.136 TIME LEFT: 16.53W  GRAD.:    19.159 HEAT:-227.3397
 CYCLE:    79 TIME:   0.134 TIME LEFT: 16.53W  GRAD.:    56.224 HEAT:-226.3863
 CYCLE:    80 TIME:   0.138 TIME LEFT: 16.53W  GRAD.:    26.660 HEAT:-227.9856
 CYCLE:    81 TIME:   0.142 TIME LEFT: 16.53W  GRAD.:    86.566 HEAT:-224.9800
 CYCLE:    82 TIME:   0.137 TIME LEFT: 16.53W  GRAD.:    19.784 HEAT:-228.6640
 CYCLE:    83 TIME:   0.140 TIME LEFT: 16.53W  GRAD.:    81.034 HEAT:-226.1373
 CYCLE:    84 TIME:   0.135 TIME LEFT: 16.53W  GRAD.:    17.834 HEAT:-228.8479
 CYCLE:    85 TIME:   0.142 TIME LEFT: 16.53W  GRAD.:    58.407 HEAT:-227.3537
 CYCLE:    86 TIME:   0.137 TIME LEFT: 16.53W  GRAD.:    16.081 HEAT:-229.0684
 CYCLE:    87 TIME:   0.133 TIME LEFT: 16.53W  GRAD.:    59.346 HEAT:-227.6882
 CYCLE:    88 TIME:   0.133 TIME LEFT: 16.53W  GRAD.:    11.400 HEAT:-229.1570
 CYCLE:    89 TIME:   0.134 TIME LEFT: 16.53W  GRAD.:    36.075 HEAT:-228.6654
 CYCLE:    90 TIME:   0.133 TIME LEFT: 16.53W  GRAD.:    13.183 HEAT:-229.2902
 CYCLE:    91 TIME:   0.133 TIME LEFT: 16.53W  GRAD.:    46.351 HEAT:-228.3517
 CYCLE:    92 TIME:   0.133 TIME LEFT: 16.53W  GRAD.:     7.448 HEAT:-229.4362
 CYCLE:    93 TIME:   0.133 TIME LEFT: 16.53W  GRAD.:    35.979 HEAT:-228.9476
 CYCLE:    94 TIME:   0.133 TIME LEFT: 16.53W  GRAD.:     5.327 HEAT:-229.4925
 CYCLE:    95 TIME:   0.133 TIME LEFT: 16.53W  GRAD.:    21.718 HEAT:-229.2392
 CYCLE:    96 TIME:   0.133 TIME LEFT: 16.53W  GRAD.:     7.232 HEAT:-229.4982
 CYCLE:    97 TIME:   0.133 TIME LEFT: 16.53W  GRAD.:    27.319 HEAT:-229.1498
 CYCLE:    98 TIME:   0.129 TIME LEFT: 16.53W  GRAD.:     4.183 HEAT:-229.5173
 CYCLE:    99 TIME:   0.129 TIME LEFT: 16.53W  GRAD.:    18.610 HEAT:-229.4126
 CYCLE:   100 TIME:   0.129 TIME LEFT: 16.53W  GRAD.:     3.615 HEAT:-229.5467
 CYCLE:   101 TIME:   0.129 TIME LEFT: 16.53W  GRAD.:    11.369 HEAT:-229.4856
 CYCLE:   102 TIME:   0.128 TIME LEFT: 16.53W  GRAD.:     4.067 HEAT:-229.5673
 CYCLE:   103 TIME:   0.129 TIME LEFT: 16.53W  GRAD.:    15.383 HEAT:-229.4899
 CYCLE:   104 TIME:   0.129 TIME LEFT: 16.53W  GRAD.:     3.554 HEAT:-229.6026
 CYCLE:   105 TIME:   0.128 TIME LEFT: 16.53W  GRAD.:    10.061 HEAT:-229.5623
 CYCLE:   106 TIME:   0.129 TIME LEFT: 16.53W  GRAD.:     6.362 HEAT:-229.6258
 CYCLE:   107 TIME:   0.128 TIME LEFT: 16.53W  GRAD.:    15.283 HEAT:-229.5239
 CYCLE:   108 TIME:   0.129 TIME LEFT: 16.53W  GRAD.:     2.898 HEAT:-229.6836
 CYCLE:   109 TIME:   0.133 TIME LEFT: 16.53W  GRAD.:     5.807 HEAT:-229.7034
 CYCLE:   110 TIME:   0.134 TIME LEFT: 16.53W  GRAD.:    12.507 HEAT:-229.5949
 CYCLE:   111 TIME:   0.133 TIME LEFT: 16.53W  GRAD.:    15.588 HEAT:-229.7663
 CYCLE:   112 TIME:   0.131 TIME LEFT: 16.53W  GRAD.:    10.705 HEAT:-229.8290
 CYCLE:   113 TIME:   0.132 TIME LEFT: 16.53W  GRAD.:    21.485 HEAT:-229.8906
 CYCLE:   114 TIME:   0.133 TIME LEFT: 16.53W  GRAD.:    19.495 HEAT:-229.8936
 CYCLE:   115 TIME:   0.133 TIME LEFT: 16.53W  GRAD.:    17.168 HEAT:-230.0325
 CYCLE:   116 TIME:   0.132 TIME LEFT: 16.53W  GRAD.:    10.097 HEAT:-230.2859
 CYCLE:   117 TIME:   0.132 TIME LEFT: 16.53W  GRAD.:    28.177 HEAT:-230.0905
 CYCLE:   118 TIME:   0.134 TIME LEFT: 16.53W  GRAD.:    14.871 HEAT:-230.3833
 CYCLE:   119 TIME:   0.132 TIME LEFT: 16.53W  GRAD.:    18.176 HEAT:-230.3390
 CYCLE:   120 TIME:   0.132 TIME LEFT: 16.53W  GRAD.:     5.646 HEAT:-230.5018
 CYCLE:   121 TIME:   0.132 TIME LEFT: 16.53W  GRAD.:    14.920 HEAT:-230.4372
 CYCLE:   122 TIME:   0.129 TIME LEFT: 16.53W  GRAD.:    10.922 HEAT:-230.4946
 CYCLE:   123 TIME:   0.131 TIME LEFT: 16.53W  GRAD.:    11.695 HEAT:-230.5057
 CYCLE:   124 TIME:   0.133 TIME LEFT: 16.53W  GRAD.:     4.387 HEAT:-230.6037
 CYCLE:   125 TIME:   0.131 TIME LEFT: 16.53W  GRAD.:     8.018 HEAT:-230.6165
 CYCLE:   126 TIME:   0.132 TIME LEFT: 16.53W  GRAD.:     4.387 HEAT:-230.7149
 CYCLE:   127 TIME:   0.131 TIME LEFT: 16.53W  GRAD.:     9.777 HEAT:-230.8203
 CYCLE:   128 TIME:   0.132 TIME LEFT: 16.53W  GRAD.:     6.678 HEAT:-230.8944
 CYCLE:   129 TIME:   0.132 TIME LEFT: 16.53W  GRAD.:     5.329 HEAT:-231.0404
 CYCLE:   130 TIME:   0.131 TIME LEFT: 16.53W  GRAD.:     7.588 HEAT:-231.2109
 CYCLE:   131 TIME:   0.133 TIME LEFT: 16.53W  GRAD.:     5.939 HEAT:-231.2880
 CYCLE:   132 TIME:   0.132 TIME LEFT: 16.53W  GRAD.:     6.741 HEAT:-231.3875
 CYCLE:   133 TIME:   0.133 TIME LEFT: 16.53W  GRAD.:     6.200 HEAT:-231.3957
 CYCLE:   134 TIME:   0.127 TIME LEFT: 16.53W  GRAD.:     4.313 HEAT:-231.4428
 CYCLE:   135 TIME:   0.128 TIME LEFT: 16.53W  GRAD.:     4.411 HEAT:-231.4884
 CYCLE:   136 TIME:   0.127 TIME LEFT: 16.53W  GRAD.:     4.279 HEAT:-231.5282
 CYCLE:   137 TIME:   0.133 TIME LEFT: 16.53W  GRAD.:     3.093 HEAT:-231.4978
 CYCLE:   138 TIME:   0.131 TIME LEFT: 16.53W  GRAD.:     3.448 HEAT:-231.5132
 CYCLE:   139 TIME:   0.132 TIME LEFT: 16.53W  GRAD.:     2.531 HEAT:-231.5409
 CYCLE:   140 TIME:   0.132 TIME LEFT: 16.53W  GRAD.:     2.432 HEAT:-231.5941
 CYCLE:   141 TIME:   0.132 TIME LEFT: 16.53W  GRAD.:     3.466 HEAT:-231.6056
 CYCLE:   142 TIME:   0.133 TIME LEFT: 16.53W  GRAD.:     2.503 HEAT:-231.6001
 CYCLE:   143 TIME:   0.133 TIME LEFT: 16.53W  GRAD.:     2.558 HEAT:-231.6240
 CYCLE:   144 TIME:   0.133 TIME LEFT: 16.53W  GRAD.:     2.075 HEAT:-231.6188
 CYCLE:   145 TIME:   0.133 TIME LEFT: 16.53W  GRAD.:     1.939 HEAT:-231.6417
 CYCLE:   146 TIME:   0.132 TIME LEFT: 16.53W  GRAD.:     1.440 HEAT:-231.6803
 CYCLE:   147 TIME:   0.133 TIME LEFT: 16.53W  GRAD.:     1.345 HEAT:-231.7256
 CYCLE:   148 TIME:   0.133 TIME LEFT: 16.53W  GRAD.:     1.075 HEAT:-231.7151
 CYCLE:   149 TIME:   0.133 TIME LEFT: 16.53W  GRAD.:     1.052 HEAT:-231.6948
 CYCLE:   150 TIME:   0.132 TIME LEFT: 16.53W  GRAD.:     0.932 HEAT:-231.6976
 CYCLE:   151 TIME:   0.142 TIME LEFT: 16.53W  GRAD.:     1.474 HEAT:-231.7190
 CYCLE:   152 TIME:   0.133 TIME LEFT: 16.53W  GRAD.:     1.133 HEAT:-231.7304
 CYCLE:   153 TIME:   0.132 TIME LEFT: 16.53W  GRAD.:     1.383 HEAT:-231.7528
 CYCLE:   154 TIME:   0.132 TIME LEFT: 16.53W  GRAD.:     1.061 HEAT:-231.7549
 CYCLE:   155 TIME:   0.136 TIME LEFT: 16.53W  GRAD.:     1.480 HEAT:-231.8007
 CYCLE:   156 TIME:   0.132 TIME LEFT: 16.53W  GRAD.:     1.462 HEAT:-231.8019
 CYCLE:   157 TIME:   0.132 TIME LEFT: 16.53W  GRAD.:     1.493 HEAT:-231.8179
 CYCLE:   158 TIME:   0.132 TIME LEFT: 16.53W  GRAD.:     0.921 HEAT:-231.8069
 CYCLE:   159 TIME:   0.132 TIME LEFT: 16.53W  GRAD.:     0.954 HEAT:-231.8145
 CYCLE:   160 TIME:   0.132 TIME LEFT: 16.53W  GRAD.:     0.767 HEAT:-231.8157
 CYCLE:   161 TIME:   0.132 TIME LEFT: 16.53W  GRAD.:     0.745 HEAT:-231.8034
 CYCLE:   162 TIME:   0.137 TIME LEFT: 16.53W  GRAD.:     1.238 HEAT:-231.8197
 CYCLE:   163 TIME:   0.133 TIME LEFT: 16.53W  GRAD.:     1.266 HEAT:-231.7906
 CYCLE:   164 TIME:   0.132 TIME LEFT: 16.53W  GRAD.:     1.151 HEAT:-231.7992
 CYCLE:   165 TIME:   0.137 TIME LEFT: 16.53W  GRAD.:     1.627 HEAT:-231.8144
 CYCLE:   166 TIME:   0.133 TIME LEFT: 16.53W  GRAD.:     1.178 HEAT:-231.8046
 CYCLE:   167 TIME:   0.133 TIME LEFT: 16.53W  GRAD.:     1.133 HEAT:-231.8089
 CYCLE:   168 TIME:   0.133 TIME LEFT: 16.53W  GRAD.:     1.177 HEAT:-231.8273
 CYCLE:   169 TIME:   0.133 TIME LEFT: 16.53W  GRAD.:     1.015 HEAT:-231.8264
 CYCLE:   170 TIME:   0.141 TIME LEFT: 16.53W  GRAD.:     1.144 HEAT:-231.8199
 CYCLE:   171 TIME:   0.132 TIME LEFT: 16.53W  GRAD.:     0.968 HEAT:-231.8116
 CYCLE:   172 TIME:   0.132 TIME LEFT: 16.53W  GRAD.:     0.791 HEAT:-231.8131
 CYCLE:   173 TIME:   0.132 TIME LEFT: 16.53W  GRAD.:     0.631 HEAT:-231.8103
 CYCLE:   174 TIME:   0.132 TIME LEFT: 16.53W  GRAD.:     0.645 HEAT:-231.8099
 CYCLE:   175 TIME:   0.133 TIME LEFT: 16.53W  GRAD.:     0.746 HEAT:-231.8166
 CYCLE:   176 TIME:   0.132 TIME LEFT: 16.53W  GRAD.:     0.773 HEAT:-231.8260
 CYCLE:   177 TIME:   0.132 TIME LEFT: 16.53W  GRAD.:     0.519 HEAT:-231.8313
 CYCLE:   178 TIME:   0.132 TIME LEFT: 16.53W  GRAD.:     0.414 HEAT:-231.8161
 CYCLE:   179 TIME:   0.132 TIME LEFT: 16.53W  GRAD.:     0.477 HEAT:-231.8685
 CYCLE:   180 TIME:   0.132 TIME LEFT: 16.53W  GRAD.:     0.519 HEAT:-231.8678
 CYCLE:   181 TIME:   0.127 TIME LEFT: 16.53W  GRAD.:     0.450 HEAT:-231.8606
 CYCLE:   182 TIME:   0.131 TIME LEFT: 16.53W  GRAD.:     0.346 HEAT:-231.8536
 CYCLE:   183 TIME:   0.132 TIME LEFT: 16.53W  GRAD.:     0.346 HEAT:-231.8703
 CYCLE:   184 TIME:   0.126 TIME LEFT: 16.53W  GRAD.:     0.230 HEAT:-231.8698
 CYCLE:   185 TIME:   0.127 TIME LEFT: 16.53W  GRAD.:     0.195 HEAT:-231.8598
 CYCLE:   186 TIME:   0.127 TIME LEFT: 16.53W  GRAD.:     0.176 HEAT:-231.8596
 CYCLE:   187 TIME:   0.125 TIME LEFT: 16.53W  GRAD.:     0.187 HEAT:-231.8538
 CYCLE:   188 TIME:   0.126 TIME LEFT: 16.53W  GRAD.:     0.203 HEAT:-231.8551
 CYCLE:   189 TIME:   0.130 TIME LEFT: 16.53W  GRAD.:     0.283 HEAT:-231.8660
 CYCLE:   190 TIME:   0.127 TIME LEFT: 16.53W  GRAD.:     0.159 HEAT:-231.8653
 CYCLE:   191 TIME:   0.131 TIME LEFT: 16.53W  GRAD.:     0.165 HEAT:-231.8566
 CYCLE:   192 TIME:   0.122 TIME LEFT: 16.53W  GRAD.:     0.207 HEAT:-231.8527
 CYCLE:   193 TIME:   0.131 TIME LEFT: 16.53W  GRAD.:     0.250 HEAT:-231.8496
 CYCLE:   194 TIME:   0.128 TIME LEFT: 16.53W  GRAD.:     0.260 HEAT:-231.8494
 CYCLE:   195 TIME:   0.127 TIME LEFT: 16.53W  GRAD.:     0.222 HEAT:-231.8538
 CYCLE:   196 TIME:   0.126 TIME LEFT: 16.53W  GRAD.:     0.154 HEAT:-231.8532
 CYCLE:   197 TIME:   0.131 TIME LEFT: 16.53W  GRAD.:     0.195 HEAT:-231.8487
 CYCLE:   198 TIME:   0.127 TIME LEFT: 16.53W  GRAD.:     0.185 HEAT:-231.8485
 CYCLE:   199 TIME:   0.131 TIME LEFT: 16.53W  GRAD.:     0.218 HEAT:-231.8412
 CYCLE:   200 TIME:   0.126 TIME LEFT: 16.53W  GRAD.:     0.166 HEAT:-231.8421
 CYCLE:   201 TIME:   0.131 TIME LEFT: 16.53W  GRAD.:     0.190 HEAT:-231.8500
 CYCLE:   202 TIME:   0.128 TIME LEFT: 16.53W  GRAD.:     0.116 HEAT:-231.8477

     RMS GRADIENT =  0.11558  IS LESS THAN CUTOFF =  0.15000



 -------------------------------------------------------------------------------
 PM6 T=31535643 DUMP=4320 XYZ EPS=78.40 RSOLV=1.30 MULLIK SYBYL +
 CHARGE=0 RELSCF=0.1 LET DDMIN=0.0 GNORM=0.15
 SJ000002349-1_T001S001I001C04: Geometry optimization step



     GEOMETRY OPTIMISED USING EIGENVECTOR FOLLOWING (EF).     
     SCF FIELD WAS ACHIEVED                                   


                               PM6     CALCULATION
                                                       MOPAC2009 (Version: 9.015L)
                                                       Tue Sep  6 16:27:18 2011




          FINAL HEAT OF FORMATION =       -231.84775 KCAL =    -970.05097 KJ
          VAN DER WAALS AREA      =        376.39 SQUARE ANGSTROMS


          TOTAL ENERGY            =      -4629.84561 EV
          ELECTRONIC ENERGY       =      -8585.15350 EV  POINT GROUP:     C1  
          CORE-CORE REPULSION     =       3955.30789 EV
          DIELECTRIC ENERGY       =         -1.40412 EV
          COSMO AREA              =        376.39 SQUARE ANGSTROMS
          COSMO VOLUME            =        459.84 CUBIC ANGSTROMS

          IONIZATION POTENTIAL    =          9.170482 EV
          HOMO LUMO ENERGIES (EV) =         -9.170 -0.960
          NO. OF FILLED LEVELS    =         74
          MOLECULAR WEIGHT        =        382.455

          MOLECULAR DIMENSIONS (Angstroms)

            Atom       Atom       Distance
            H    54    H    38    11.03684
            H    49    H    46    10.88103
            H    36    H    17     4.95150


          SCF CALCULATIONS        =        204
          COMPUTATION TIME        =         28.050 SECONDS




   ATOM   CHEMICAL          X               Y              Z
  NUMBER   SYMBOL      (ANGSTROMS)     (ANGSTROMS)    (ANGSTROMS)
 
     1       C         -0.0898397  *   -0.117797  *   -0.163085  *
     2       C          0.7526097  *   -0.277656  *    1.138082  *
     3       C          0.0132283  *    0.225316  *    2.318425  *
     4       C         -1.3321577  *    0.312671  *    2.455002  *
     5       C         -1.9748267  *    0.742493  *    3.753596  *
     6       C         -0.9550910  *    1.418925  *    4.637163  *
     7       C          0.3740973  *    1.304403  *    4.416143  *
     8       C          1.4707170  *    1.839325  *    5.255659  *
     9       C          0.9789576  *    3.022572  *    6.142657  *
    10       C         -0.3834121  *    2.646979  *    6.779304  *
    11       C         -1.4251950  *    2.217755  *    5.780874  *
    12       O         -2.6017115  *    2.521591  *    5.930994  *
    13       O          0.8991887  *    0.638380  *    3.307088  *
    14       C         -2.1850489  *   -0.013299  *    1.310521  *
    15       O         -3.4018679  *    0.191941  *    1.322062  *
    16       C         -1.5334111  *   -0.619063  *    0.101748  *
    17       H          1.0149239  *   -1.352579  *    1.296394  *
    18       H          1.7401864  *    0.224632  *    1.022718  *
    19       H         -2.7905170  *    1.487894  *    3.521904  *
    20       H          1.8786471  *    1.020553  *    5.897383  *
    21       H          2.3429564  *    2.156160  *    4.639879  *
    22       H         -0.2428685  *    1.824405  *    7.518358  *
    23       H         -0.7587115  *    3.497059  *    7.389100  *
    24       H         -2.1592356  *   -0.453963  *   -0.802718  *
    25       H         -1.5314163  *   -1.728991  *    0.226252  *
    26       C         -2.5951594  *   -0.449373  *    4.455140  *
    27       C         -3.9749250  *   -0.722813  *    4.316494  *
    28       C         -4.6077240  *   -1.764148  *    5.008963  *
    29       C         -3.8081267  *   -2.562963  *    5.833582  *
    30       H         -5.6743035  *   -1.939013  *    4.895363  *
    31       C         -2.4254266  *   -2.354588  *    5.970334  *
    32       C         -1.8401791  *   -1.296306  *    5.276035  *
    33       H         -1.8347235  *   -3.007390  *    6.608325  *
    34       H         -0.7650082  *   -1.122623  *    5.381638  *
    35       O         -4.7922215  *    0.012948  *    3.507729  *
    36       H         -4.2556495  *    0.561182  *    2.811187  *
    37       O         -4.3212696  *   -3.606303  *    6.552728  *
    38       H         -5.3135015  *   -3.712330  *    6.425933  *
    39       C         -0.1190266  *    1.357376  *   -0.582522  *
    40       H          0.8889006  *    1.738047  *   -0.791058  *
    41       H         -0.7068493  *    1.503707  *   -1.497588  *
    42       H         -0.5543613  *    2.003054  *    0.187849  *
    43       C          0.5454798  *   -0.966746  *   -1.269927  *
    44       H          1.5773691  *   -0.655326  *   -1.476006  *
    45       H          0.5753582  *   -2.032747  *   -1.013353  *
    46       H         -0.0082529  *   -0.878088  *   -2.213234  *
    47       C          2.0067835  *    3.268502  *    7.253299  *
    48       H          2.9940090  *    3.515028  *    6.842928  *
    49       H          1.7107748  *    4.107458  *    7.896054  *
    50       H          2.1350707  *    2.394633  *    7.903351  *
    51       C          0.8233195  *    4.283297  *    5.282094  *
    52       H          0.1216485  *    4.139371  *    4.453360  *
    53       H          0.4559337  *    5.131056  *    5.873922  *
    54       H          1.7800098  *    4.593717  *    4.843689  *

           Empirical Formula: C23 H26 O5  =    54 atoms



      MOLECULAR POINT GROUP   :   C1  


                  EIGENVALUES  
 -32.28006 -31.94689 -31.82512 -31.12764 -30.96218 -30.57326 -30.22499 -29.85628
 -28.84584 -27.87696 -26.60695 -26.41863 -26.08037 -25.56172 -25.17843 -24.51300
 -24.45759 -24.07053 -23.40243 -22.44365 -22.01461 -21.70016 -21.21162 -20.39020
 -19.76497 -19.33836 -18.45624 -17.85518 -17.58526 -17.26909 -17.17254 -16.92614
 -16.67151 -16.19369 -16.12770 -15.88943 -15.72266 -15.55502 -15.42700 -15.40790
 -15.27569 -15.06742 -14.87649 -14.81911 -14.77449 -14.48862 -14.41666 -14.35392
 -14.24289 -14.09142 -13.81865 -13.59180 -13.45567 -13.38990 -13.20672 -13.11067
 -13.01682 -12.97140 -12.93467 -12.82953 -12.38628 -12.33110 -12.26905 -12.10017
 -12.02448 -12.00579 -11.90611 -11.80750 -10.99506 -10.84687 -10.63323  -9.93630
  -9.79737  -9.17048  -0.95998  -0.37650  -0.11124   0.02837   0.50973   0.93306
   1.09116   1.90551   2.04089   2.24649   2.33293   2.55039   2.79568   2.86291
   3.12586   3.15585   3.27923   3.39601   3.45913   3.51417   3.61574   3.65920
   3.75681   3.84208   3.88113   3.93193   3.97352   4.07709   4.14466   4.19534
   4.24602   4.31341   4.42617   4.55378   4.60094   4.70379   4.78630   5.09361
   5.11209   5.12212   5.20151   5.25173   5.26925   5.31936   5.60917   5.68180
   5.72776   5.74094   5.76999   5.77847   5.78243   5.79244   5.80903   5.82313
   5.87110   5.89883   6.03632   6.04824   6.09684   6.15977   6.74838   6.75980
   6.85328   6.86477


              NET ATOMIC CHARGES AND DIPOLE CONTRIBUTIONS

  ATOM NO.   TYPE          CHARGE      No. of ELECS.   s-Pop       p-Pop       
    1          C           0.328996        3.6710     1.06717     2.60383
    2          C          -0.460709        4.4607     1.11107     3.34963
    3          C           0.467568        3.5324     1.10726     2.42517
    4          C          -0.502602        4.5026     1.11657     3.38603
    5          C           0.142433        3.8576     1.05194     2.80562
    6          C          -0.478809        4.4788     1.11801     3.36079
    7          C           0.441701        3.5583     1.10754     2.45076
    8          C          -0.454881        4.4549     1.11025     3.34463
    9          C           0.328371        3.6716     1.06695     2.60468
   10          C          -0.546120        4.5461     1.12404     3.42208
   11          C           0.671689        3.3283     1.09035     2.23797
   12          O          -0.624828        6.6248     1.85188     4.77295
   13          O          -0.362835        6.3628     1.83588     4.52696
   14          C           0.672938        3.3271     1.09280     2.23426
   15          O          -0.641298        6.6413     1.85144     4.78985
   16          C          -0.538977        4.5390     1.12267     3.41631
   17          H           0.215410        0.7846     0.78459
   18          H           0.211574        0.7884     0.78843
   19          H           0.141258        0.8587     0.85874
   20          H           0.213735        0.7863     0.78626
   21          H           0.208923        0.7911     0.79108
   22          H           0.211752        0.7882     0.78825
   23          H           0.205880        0.7941     0.79412
   24          H           0.208557        0.7914     0.79144
   25          H           0.218216        0.7818     0.78178
   26          C          -0.320018        4.3200     1.10243     3.21759
   27          C           0.440067        3.5599     1.07600     2.48394
   28          C          -0.540823        4.5408     1.11029     3.43054
   29          C           0.436886        3.5631     1.07474     2.48837
   30          H           0.212259        0.7877     0.78774
   31          C          -0.434865        4.4349     1.10483     3.33003
   32          C           0.064676        3.9353     1.10418     2.83114
   33          H           0.195815        0.8042     0.80419
   34          H           0.153176        0.8468     0.84682
   35          O          -0.552424        6.5524     1.81611     4.73631
   36          H           0.382600        0.6174     0.61740
   37          O          -0.516889        6.5169     1.80603     4.71085
   38          H           0.374445        0.6256     0.62555
   39          C          -0.562052        4.5621     1.09667     3.46539
   40          H           0.173911        0.8261     0.82609
   41          H           0.174406        0.8256     0.82559
   42          H           0.166538        0.8335     0.83346
   43          C          -0.555473        4.5555     1.09578     3.45969
   44          H           0.172928        0.8271     0.82707
   45          H           0.171221        0.8288     0.82878
   46          H           0.173576        0.8264     0.82642
   47          C          -0.555608        4.5556     1.09585     3.45976
   48          H           0.172085        0.8279     0.82791
   49          H           0.173870        0.8261     0.82613
   50          H           0.170250        0.8297     0.82975
   51          C          -0.560555        4.5606     1.09655     3.46400
   52          H           0.166123        0.8339     0.83388
   53          H           0.173442        0.8266     0.82656
   54          H           0.172487        0.8275     0.82751
 DIPOLE           X         Y         Z       TOTAL
 POINT-CHG.    14.314    -0.236    -3.073    14.642
 HYBRID        -0.598    -0.191    -0.153     0.646
 SUM           13.716    -0.427    -3.226    14.097


          CARTESIAN COORDINATES 

    NO.       ATOM               X         Y         Z

     1         C                 -0.0898   -0.1178   -0.1631
     2         C                  0.7526   -0.2777    1.1381
     3         C                  0.0132    0.2253    2.3184
     4         C                 -1.3322    0.3127    2.4550
     5         C                 -1.9748    0.7425    3.7536
     6         C                 -0.9551    1.4189    4.6372
     7         C                  0.3741    1.3044    4.4161
     8         C                  1.4707    1.8393    5.2557
     9         C                  0.9790    3.0226    6.1427
    10         C                 -0.3834    2.6470    6.7793
    11         C                 -1.4252    2.2178    5.7809
    12         O                 -2.6017    2.5216    5.9310
    13         O                  0.8992    0.6384    3.3071
    14         C                 -2.1850   -0.0133    1.3105
    15         O                 -3.4019    0.1919    1.3221
    16         C                 -1.5334   -0.6191    0.1017
    17         H                  1.0149   -1.3526    1.2964
    18         H                  1.7402    0.2246    1.0227
    19         H                 -2.7905    1.4879    3.5219
    20         H                  1.8786    1.0206    5.8974
    21         H                  2.3430    2.1562    4.6399
    22         H                 -0.2429    1.8244    7.5184
    23         H                 -0.7587    3.4971    7.3891
    24         H                 -2.1592   -0.4540   -0.8027
    25         H                 -1.5314   -1.7290    0.2263
    26         C                 -2.5952   -0.4494    4.4551
    27         C                 -3.9749   -0.7228    4.3165
    28         C                 -4.6077   -1.7641    5.0090
    29         C                 -3.8081   -2.5630    5.8336
    30         H                 -5.6743   -1.9390    4.8954
    31         C                 -2.4254   -2.3546    5.9703
    32         C                 -1.8402   -1.2963    5.2760
    33         H                 -1.8347   -3.0074    6.6083
    34         H                 -0.7650   -1.1226    5.3816
    35         O                 -4.7922    0.0129    3.5077
    36         H                 -4.2556    0.5612    2.8112
    37         O                 -4.3213   -3.6063    6.5527
    38         H                 -5.3135   -3.7123    6.4259
    39         C                 -0.1190    1.3574   -0.5825
    40         H                  0.8889    1.7380   -0.7911
    41         H                 -0.7068    1.5037   -1.4976
    42         H                 -0.5544    2.0031    0.1878
    43         C                  0.5455   -0.9667   -1.2699
    44         H                  1.5774   -0.6553   -1.4760
    45         H                  0.5754   -2.0327   -1.0134
    46         H                 -0.0083   -0.8781   -2.2132
    47         C                  2.0068    3.2685    7.2533
    48         H                  2.9940    3.5150    6.8429
    49         H                  1.7108    4.1075    7.8961
    50         H                  2.1351    2.3946    7.9034
    51         C                  0.8233    4.2833    5.2821
    52         H                  0.1216    4.1394    4.4534
    53         H                  0.4559    5.1311    5.8739
    54         H                  1.7800    4.5937    4.8437


          ATOMIC ORBITAL ELECTRON POPULATIONS

   1.06717   0.84209   0.89885   0.86289   1.11107   1.13389   1.19429   1.02145
   1.10726   0.86696   0.76487   0.79334   1.11657   1.02389   1.28030   1.08185
   1.05194   0.97433   0.95786   0.87344   1.11801   1.01964   1.20093   1.14022
   1.10754   0.91816   0.76968   0.76293   1.11025   1.08302   1.13872   1.12289
   1.06695   0.86232   0.86501   0.87735   1.12404   1.08733   1.21103   1.12373
   1.09035   0.80291   0.65624   0.77881   1.85188   1.37106   1.61226   1.78963
   1.83588   1.47837   1.67358   1.37500   1.09280   0.79140   0.61309   0.82977
   1.85144   1.34212   1.59897   1.84876   1.12267   1.11522   1.18064   1.12045
   0.78459   0.78843   0.85874   0.78626   0.79108   0.78825   0.79412   0.79144
   0.78178   1.10243   0.99732   1.08045   1.13982   1.07600   0.85857   0.82023
   0.80513   1.11029   1.13582   1.11280   1.18192   1.07474   0.89798   0.77885
   0.81155   0.78774   1.10483   1.02230   1.12799   1.17974   1.10418   1.04869
   0.90100   0.88145   0.80419   0.84682   1.81611   1.52321   1.65685   1.55625
   0.61740   1.80603   1.43450   1.56659   1.70976   0.62555   1.09667   1.20298
   1.07364   1.18876   0.82609   0.82559   0.83346   1.09578   1.17692   1.15457
   1.12820   0.82707   0.82878   0.82642   1.09585   1.13750   1.19592   1.12634
   0.82791   0.82613   0.82975   1.09655   1.19801   1.11128   1.15471   0.83388
   0.82656   0.82751

           MULLIKEN POPULATION ANALYSIS



        MULLIKEN POPULATIONS AND CHARGES

      NO.  ATOM   POPULATION      CHARGE
        1    C     3.636439      0.363561
        2    C     4.580298     -0.580298
        3    C     3.507657      0.492343
        4    C     4.546179     -0.546179
        5    C     3.850766      0.149234
        6    C     4.521039     -0.521039
        7    C     3.535468      0.464532
        8    C     4.573156     -0.573156
        9    C     3.637097      0.362903
       10    C     4.672134     -0.672134
       11    C     3.281195      0.718805
       12    O     6.650882     -0.650882
       13    O     6.402150     -0.402150
       14    C     3.281771      0.718229
       15    O     6.670749     -0.670749
       16    C     4.665155     -0.665155
       17    H     0.730907      0.269093
       18    H     0.732962      0.267038
       19    H     0.819138      0.180862
       20    H     0.732725      0.267275
       21    H     0.736352      0.263648
       22    H     0.735604      0.264396
       23    H     0.739312      0.260688
       24    H     0.736338      0.263662
       25    H     0.728307      0.271693
       26    C     4.346110     -0.346110
       27    C     3.531311      0.468689
       28    C     4.619155     -0.619155
       29    C     3.538920      0.461080
       30    H     0.723967      0.276033
       31    C     4.503978     -0.503978
       32    C     3.960179      0.039821
       33    H     0.744445      0.255555
       34    H     0.799221      0.200779
       35    O     6.599130     -0.599130
       36    H     0.583711      0.416289
       37    O     6.566484     -0.566484
       38    H     0.593020      0.406980
       39    C     4.707549     -0.707549
       40    H     0.778287      0.221713
       41    H     0.777723      0.222277
       42    H     0.786737      0.213263
       43    C     4.701787     -0.701787
       44    H     0.779479      0.220521
       45    H     0.781295      0.218705
       46    H     0.778729      0.221271
       47    C     4.701827     -0.701827
       48    H     0.780485      0.219515
       49    H     0.778368      0.221632
       50    H     0.782479      0.217521
       51    C     4.705657     -0.705657
       52    H     0.787275      0.212725
       53    H     0.778881      0.221119
       54    H     0.780027      0.219973



 TOTAL CPU TIME:            28.08 SECONDS

 == MOPAC DONE ==
 *******************************************************************************
 ** Site#:  958            For non-commercial use only         Version 9.015L **
 *******************************************************************************
 ** Cite this work as: MOPAC2009, James J. P. Stewart, Stewart Computational  **
 ** Chemistry, Version 9.015L web: HTTP://OpenMOPAC.net                       **
 *******************************************************************************
 **                                                                           **
 **                                MOPAC2009                                  **
 **                                                                           **
 *******************************************************************************

                            PM6 CALCULATION RESULTS


 *******************************************************************************
 *  CALCULATION DONE:                                Tue Sep  6 16:27:18 2011  *
 *  PM6      - The PM6 Hamiltonian to be used
 *  GEO-OK   - OVERRIDE INTERATOMIC DISTANCE CHECK
 *
 *
 *
 *                 CHARGE ON SYSTEM =     0
 *
 *
 *
 *  EPS= 78.400
 *  RSOLV=  1.300
 *  OLDGEO   - PREVIOUS GEOMETRY TO BE USED
 *  T=       - A TIME OF 172800.0 SECONDS REQUESTED
 *  DUMP=N   - RESTART FILE WRITTEN EVERY  4320.000 SECONDS
 *  RELSCF   - DEFAULT SCF CRITERION MULTIPLIED BY   0.100    
 *             (DEFAULT SCFCRT= 0.00010)
 *  THERMO   - THERMODYNAMIC QUANTITIES TO BE CALCULATED
 *******************************************************************************
 PM6 DUMP=4320 RELSCF=0.1 THERMO EPS=78.40 RSOLV=1.30 +
 OLDGEO GEO-OK CHARGE=0
 SJ000002349-1_T001S001I001C04: Free energy calculation

   ATOM   CHEMICAL          X               Y              Z
  NUMBER   SYMBOL      (ANGSTROMS)     (ANGSTROMS)    (ANGSTROMS)
 
     1       C         -0.0898397  *   -0.117797  *   -0.163085  *
     2       C          0.7526097  *   -0.277656  *    1.138082  *
     3       C          0.0132283  *    0.225316  *    2.318425  *
     4       C         -1.3321577  *    0.312671  *    2.455002  *
     5       C         -1.9748267  *    0.742493  *    3.753596  *
     6       C         -0.9550910  *    1.418925  *    4.637163  *
     7       C          0.3740973  *    1.304403  *    4.416143  *
     8       C          1.4707170  *    1.839325  *    5.255659  *
     9       C          0.9789576  *    3.022572  *    6.142657  *
    10       C         -0.3834121  *    2.646979  *    6.779304  *
    11       C         -1.4251950  *    2.217755  *    5.780874  *
    12       O         -2.6017115  *    2.521591  *    5.930994  *
    13       O          0.8991887  *    0.638380  *    3.307088  *
    14       C         -2.1850489  *   -0.013299  *    1.310521  *
    15       O         -3.4018679  *    0.191941  *    1.322062  *
    16       C         -1.5334111  *   -0.619063  *    0.101748  *
    17       H          1.0149239  *   -1.352579  *    1.296394  *
    18       H          1.7401864  *    0.224632  *    1.022718  *
    19       H         -2.7905170  *    1.487894  *    3.521904  *
    20       H          1.8786471  *    1.020553  *    5.897383  *
    21       H          2.3429564  *    2.156160  *    4.639879  *
    22       H         -0.2428685  *    1.824405  *    7.518358  *
    23       H         -0.7587115  *    3.497059  *    7.389100  *
    24       H         -2.1592356  *   -0.453963  *   -0.802718  *
    25       H         -1.5314163  *   -1.728991  *    0.226252  *
    26       C         -2.5951594  *   -0.449373  *    4.455140  *
    27       C         -3.9749250  *   -0.722813  *    4.316494  *
    28       C         -4.6077240  *   -1.764148  *    5.008963  *
    29       C         -3.8081267  *   -2.562963  *    5.833582  *
    30       H         -5.6743035  *   -1.939013  *    4.895363  *
    31       C         -2.4254266  *   -2.354588  *    5.970334  *
    32       C         -1.8401791  *   -1.296306  *    5.276035  *
    33       H         -1.8347235  *   -3.007390  *    6.608325  *
    34       H         -0.7650082  *   -1.122623  *    5.381638  *
    35       O         -4.7922215  *    0.012948  *    3.507729  *
    36       H         -4.2556495  *    0.561182  *    2.811187  *
    37       O         -4.3212696  *   -3.606303  *    6.552728  *
    38       H         -5.3135015  *   -3.712330  *    6.425933  *
    39       C         -0.1190266  *    1.357376  *   -0.582522  *
    40       H          0.8889006  *    1.738047  *   -0.791058  *
    41       H         -0.7068493  *    1.503707  *   -1.497588  *
    42       H         -0.5543613  *    2.003054  *    0.187849  *
    43       C          0.5454798  *   -0.966746  *   -1.269927  *
    44       H          1.5773691  *   -0.655326  *   -1.476006  *
    45       H          0.5753582  *   -2.032747  *   -1.013353  *
    46       H         -0.0082529  *   -0.878088  *   -2.213234  *
    47       C          2.0067835  *    3.268502  *    7.253299  *
    48       H          2.9940090  *    3.515028  *    6.842928  *
    49       H          1.7107748  *    4.107458  *    7.896054  *
    50       H          2.1350707  *    2.394633  *    7.903351  *
    51       C          0.8233195  *    4.283297  *    5.282094  *
    52       H          0.1216485  *    4.139371  *    4.453360  *
    53       H          0.4559337  *    5.131056  *    5.873922  *
    54       H          1.7800098  *    4.593717  *    4.843689  *
 


          CARTESIAN COORDINATES 

    NO.       ATOM         X         Y         Z

     1         C       -0.0898   -0.1178   -0.1631
     2         C        0.7526   -0.2777    1.1381
     3         C        0.0132    0.2253    2.3184
     4         C       -1.3322    0.3127    2.4550
     5         C       -1.9748    0.7425    3.7536
     6         C       -0.9551    1.4189    4.6372
     7         C        0.3741    1.3044    4.4161
     8         C        1.4707    1.8393    5.2557
     9         C        0.9790    3.0226    6.1427
    10         C       -0.3834    2.6470    6.7793
    11         C       -1.4252    2.2178    5.7809
    12         O       -2.6017    2.5216    5.9310
    13         O        0.8992    0.6384    3.3071
    14         C       -2.1850   -0.0133    1.3105
    15         O       -3.4019    0.1919    1.3221
    16         C       -1.5334   -0.6191    0.1017
    17         H        1.0149   -1.3526    1.2964
    18         H        1.7402    0.2246    1.0227
    19         H       -2.7905    1.4879    3.5219
    20         H        1.8786    1.0206    5.8974
    21         H        2.3430    2.1562    4.6399
    22         H       -0.2429    1.8244    7.5184
    23         H       -0.7587    3.4971    7.3891
    24         H       -2.1592   -0.4540   -0.8027
    25         H       -1.5314   -1.7290    0.2263
    26         C       -2.5952   -0.4494    4.4551
    27         C       -3.9749   -0.7228    4.3165
    28         C       -4.6077   -1.7641    5.0090
    29         C       -3.8081   -2.5630    5.8336
    30         H       -5.6743   -1.9390    4.8954
    31         C       -2.4254   -2.3546    5.9703
    32         C       -1.8402   -1.2963    5.2760
    33         H       -1.8347   -3.0074    6.6083
    34         H       -0.7650   -1.1226    5.3816
    35         O       -4.7922    0.0129    3.5077
    36         H       -4.2556    0.5612    2.8112
    37         O       -4.3213   -3.6063    6.5527
    38         H       -5.3135   -3.7123    6.4259
    39         C       -0.1190    1.3574   -0.5825
    40         H        0.8889    1.7380   -0.7911
    41         H       -0.7068    1.5037   -1.4976
    42         H       -0.5544    2.0031    0.1878
    43         C        0.5455   -0.9667   -1.2699
    44         H        1.5774   -0.6553   -1.4760
    45         H        0.5754   -2.0327   -1.0134
    46         H       -0.0083   -0.8781   -2.2132
    47         C        2.0068    3.2685    7.2533
    48         H        2.9940    3.5150    6.8429
    49         H        1.7108    4.1075    7.8961
    50         H        2.1351    2.3946    7.9034
    51         C        0.8233    4.2833    5.2821
    52         H        0.1216    4.1394    4.4534
    53         H        0.4559    5.1311    5.8739
    54         H        1.7800    4.5937    4.8437

 General Reference for PM6:
 "Optimization of Parameters for Semiempirical Methods V: Modification of NDDO Approximations
 and Application to 70 Elements", J. J. P. Stewart, J. Mol. Mod., 13, 1173-1213 (2007)
 URL: http://www.springerlink.com/content/ar33482301010477/fulltext.pdf

           Empirical Formula: C23 H26 O5  =    54 atoms



      MOLECULAR POINT GROUP   :   C1  


      RHF CALCULATION, NO. OF DOUBLY OCCUPIED LEVELS =   74

  SCF CRITERION =    0.1000E-04


          HEAT OF FORMATION =    -231.847700 KCALS/MOLE


          INTERNAL COORDINATE DERIVATIVES

   NUMBER  ATOM       BOND         ANGLE      DIHEDRAL

     1       C
     2       C     -0.009245
     3       C     -0.016861    -0.014130
     4       C      0.023911     0.112346    -0.022139
     5       C     -0.125978    -0.094167     0.016548
     6       C     -0.013670     0.007260    -0.041440
     7       C     -0.087273     0.013657     0.006597
     8       C      0.088018    -0.004860    -0.067003
     9       C      0.017072     0.045458    -0.005056
    10       C      0.018642    -0.022058    -0.019193
    11       C      0.014851     0.071022     0.012046
    12       O     -0.066878    -0.040714    -0.039715
    13       O     -0.005981    -0.066757     0.104583
    14       C      0.008679     0.084478     0.002979
    15       O     -0.003561     0.067330    -0.019226
    16       C      0.046414    -0.087298     0.061333
    17       H      0.136922    -0.003871    -0.033152
    18       H     -0.008703     0.075737    -0.032059
    19       H     -0.007562    -0.025779     0.012127
    20       H      0.036732    -0.034381     0.024608
    21       H      0.007458     0.019590     0.002276
    22       H      0.008183    -0.004892     0.010836
    23       H     -0.015229    -0.004765    -0.003859
    24       H     -0.018994    -0.018751     0.024652
    25       H      0.002472     0.031657     0.000968
    26       C      0.025795    -0.014013     0.005957
    27       C     -0.015370     0.009794     0.013377
    28       C     -0.021814    -0.106387    -0.015799
    29       C      0.016601     0.038921     0.016424
    30       H     -0.085920    -0.025533    -0.079249
    31       C      0.008509    -0.026232     0.000285
    32       C      0.028948    -0.047778     0.009735
    33       H      0.130697    -0.053494     0.050701
    34       H     -0.106613     0.030976     0.006090
    35       O     -0.007797     0.024420     0.020081
    36       H      0.021399    -0.018848    -0.035196
    37       O      0.045281     0.094305     0.087018
    38       H     -0.016815    -0.021811    -0.026856
    39       C     -0.147314     0.194004    -0.139507
    40       H      0.138874    -0.254654     0.111192
    41       H     -0.023449     0.008705     0.015552
    42       H      0.013524    -0.008668    -0.024553
    43       C      0.008676    -0.001879    -0.000751
    44       H     -0.017890     0.021933     0.017056
    45       H     -0.020246     0.044265     0.016072
    46       H      0.011422    -0.026565    -0.018410
    47       C     -0.008340    -0.015887    -0.007341
    48       H      0.023921    -0.004535    -0.001839
    49       H      0.026920     0.014158    -0.014039
    50       H      0.003567     0.012685    -0.004178
    51       C      0.000388     0.014723     0.003427
    52       H     -0.002385    -0.001452     0.003767
    53       H     -0.058181     0.003894     0.015613
    54       H      0.007162     0.010524     0.002370


          GRADIENT NORM =   0.65918


          TIME FOR SCF CALCULATION =    0.24

          TIME FOR DERIVATIVES     =    0.08

          MOLECULAR WEIGHT =  382.46



          ROTATIONAL CONSTANTS IN CM(-1)

          A =    0.00601084   B =    0.00582450   C =    0.00357025



           PRINCIPAL MOMENTS OF INERTIA IN UNITS OF 10**(-40)*GRAM-CM**2

          A =     4657.0466   B =     4806.0422   C =     7840.5726


          ORIENTATION OF MOLECULE IN FORCE CALCULATION

    NO.       ATOM         X         Y         Z

     1          C      -2.5749   -3.2206   -0.5579
     2          C      -1.0166   -3.2206   -0.5579
     3          C      -0.4823   -1.8395   -0.5579
     4          C      -1.1046   -0.7300   -0.0909
     5          C      -0.4118    0.6125   -0.0455
     6          C       0.8079    0.5962   -0.9345
     7          C       1.3537   -0.5571   -1.3825
     8          C       2.5926   -0.7112   -2.1792
     9          C       2.9460    0.6044   -2.9362
    10          C       2.7796    1.8054   -1.9707
    11          C       1.4268    1.8768   -1.3141
    12          O       0.8849    2.9553   -1.1081
    13          O       0.7798   -1.8066   -1.1402
    14          C      -2.4878   -0.8351    0.3771
    15          O      -3.1571    0.1598    0.6689
    16          C      -3.0827   -2.2075    0.5009
    17          H      -0.6323   -3.7658    0.3389
    18          H      -0.6305   -3.8143   -1.4178
    19          H      -1.1227    1.3976   -0.4364
    20          H       3.4330   -1.0044   -1.5036
    21          H       2.5175   -1.5600   -2.8963
    22          H       3.5571    1.7615   -1.1731
    23          H       2.9987    2.7523   -2.5098
    24          H      -4.1932   -2.1558    0.4676
    25          H      -2.8638   -2.5911    1.5267
    26          C      -0.0391    0.9659    1.3806
    27          C      -0.8727    1.8090    2.1500
    28          C      -0.5298    2.2277    3.4428
    29          C       0.6729    1.7482    3.9728
    30          H      -1.1834    2.8907    4.0035
    31          C       1.5133    0.8756    3.2611
    32          C       1.1414    0.4982    1.9713
    33          H       2.4323    0.5114    3.7137
    34          H       1.7930   -0.1760    1.4072
    35          O      -2.0654    2.2846    1.6865
    36          H      -2.4131    1.7362    0.8791
    37          O       1.1030    2.0911    5.2244
    38          H       0.4716    2.7196    5.6915
    39          C      -3.0922   -2.8261   -1.9471
    40          H      -2.7605   -3.5336   -2.7176
    41          H      -4.1891   -2.8158   -1.9797
    42          H      -2.7505   -1.8317   -2.2541
    43          C      -3.0685   -4.6249   -0.1922
    44          H      -2.7147   -5.3769   -0.9088
    45          H      -2.7288   -4.9412    0.8015
    46          H      -4.1646   -4.6783   -0.1898
    47          C       4.4038    0.5289   -3.4048
    48          H       4.5696   -0.3246   -4.0739
    49          H       4.6944    1.4299   -3.9602
    50          H       5.1056    0.4261   -2.5683
    51          C       2.0140    0.7719   -4.1435
    52          H       0.9574    0.7956   -3.8554
    53          H       2.2226    1.7024   -4.6862
    54          H       2.1333   -0.0481   -4.8627


    FIRST DERIVATIVES WILL BE USED IN THE CALCULATION OF SECOND DERIVATIVES

          ESTIMATED TIME TO COMPLETE CALCULATION =      105.28 SECONDS

    FOR POINT-GROUP C1   THERE ARE   1 UNIQUE SYMMETRY FUNCTIONS.

 STEP:   1 TIME =     0.24 SECS, INTEGRAL =      0.24 TIME LEFT: 172799.44
 STEP:   2 TIME =     0.24 SECS, INTEGRAL =      0.47 TIME LEFT: 172799.20
 STEP:   3 TIME =     0.23 SECS, INTEGRAL =      0.70 TIME LEFT: 172798.97
 STEP:   4 TIME =     0.23 SECS, INTEGRAL =      0.93 TIME LEFT: 172798.75
 STEP:   5 TIME =     0.24 SECS, INTEGRAL =      1.17 TIME LEFT: 172798.50
 STEP:   6 TIME =     0.23 SECS, INTEGRAL =      1.40 TIME LEFT: 172798.28
 STEP:   7 TIME =     0.24 SECS, INTEGRAL =      1.63 TIME LEFT: 172798.04
 STEP:   8 TIME =     0.24 SECS, INTEGRAL =      1.88 TIME LEFT: 172797.80
 STEP:   9 TIME =     0.23 SECS, INTEGRAL =      2.11 TIME LEFT: 172797.57
 STEP:  10 TIME =     0.24 SECS, INTEGRAL =      2.35 TIME LEFT: 172797.32
 STEP:  11 TIME =     0.23 SECS, INTEGRAL =      2.59 TIME LEFT: 172797.09
 STEP:  12 TIME =     0.23 SECS, INTEGRAL =      2.82 TIME LEFT: 172796.86
 STEP:  13 TIME =     0.23 SECS, INTEGRAL =      3.04 TIME LEFT: 172796.63
 STEP:  14 TIME =     0.24 SECS, INTEGRAL =      3.28 TIME LEFT: 172796.39
 STEP:  15 TIME =     0.24 SECS, INTEGRAL =      3.52 TIME LEFT: 172796.15
 STEP:  16 TIME =     0.23 SECS, INTEGRAL =      3.75 TIME LEFT: 172795.92
 STEP:  17 TIME =     0.24 SECS, INTEGRAL =      3.99 TIME LEFT: 172795.68
 STEP:  18 TIME =     0.23 SECS, INTEGRAL =      4.23 TIME LEFT: 172795.45
 STEP:  19 TIME =     0.24 SECS, INTEGRAL =      4.47 TIME LEFT: 172795.21
 STEP:  20 TIME =     0.23 SECS, INTEGRAL =      4.70 TIME LEFT: 172794.97
 STEP:  21 TIME =     0.23 SECS, INTEGRAL =      4.94 TIME LEFT: 172794.74
 STEP:  22 TIME =     0.24 SECS, INTEGRAL =      5.18 TIME LEFT: 172794.50
 STEP:  23 TIME =     0.23 SECS, INTEGRAL =      5.41 TIME LEFT: 172794.27
 STEP:  24 TIME =     0.23 SECS, INTEGRAL =      5.63 TIME LEFT: 172794.04
 STEP:  25 TIME =     0.23 SECS, INTEGRAL =      5.87 TIME LEFT: 172793.81
 STEP:  26 TIME =     0.23 SECS, INTEGRAL =      6.10 TIME LEFT: 172793.58
 STEP:  27 TIME =     0.23 SECS, INTEGRAL =      6.32 TIME LEFT: 172793.35
 STEP:  28 TIME =     0.23 SECS, INTEGRAL =      6.55 TIME LEFT: 172793.13
 STEP:  29 TIME =     0.23 SECS, INTEGRAL =      6.78 TIME LEFT: 172792.90
 STEP:  30 TIME =     0.23 SECS, INTEGRAL =      7.00 TIME LEFT: 172792.67
 STEP:  31 TIME =     0.23 SECS, INTEGRAL =      7.24 TIME LEFT: 172792.44
 STEP:  32 TIME =     0.24 SECS, INTEGRAL =      7.48 TIME LEFT: 172792.19
 STEP:  33 TIME =     0.23 SECS, INTEGRAL =      7.72 TIME LEFT: 172791.96
 STEP:  34 TIME =     0.23 SECS, INTEGRAL =      7.94 TIME LEFT: 172791.73
 STEP:  35 TIME =     0.23 SECS, INTEGRAL =      8.17 TIME LEFT: 172791.51
 STEP:  36 TIME =     0.23 SECS, INTEGRAL =      8.40 TIME LEFT: 172791.28
 STEP:  37 TIME =     0.24 SECS, INTEGRAL =      8.64 TIME LEFT: 172791.04
 STEP:  38 TIME =     0.23 SECS, INTEGRAL =      8.87 TIME LEFT: 172790.80
 STEP:  39 TIME =     0.23 SECS, INTEGRAL =      9.10 TIME LEFT: 172790.58
 STEP:  40 TIME =     0.24 SECS, INTEGRAL =      9.34 TIME LEFT: 172790.33
 STEP:  41 TIME =     0.23 SECS, INTEGRAL =      9.57 TIME LEFT: 172790.10
 STEP:  42 TIME =     0.24 SECS, INTEGRAL =      9.81 TIME LEFT: 172789.86
 STEP:  43 TIME =     0.23 SECS, INTEGRAL =     10.04 TIME LEFT: 172789.64
 STEP:  44 TIME =     0.23 SECS, INTEGRAL =     10.26 TIME LEFT: 172789.41
 STEP:  45 TIME =     0.23 SECS, INTEGRAL =     10.49 TIME LEFT: 172789.18
 STEP:  46 TIME =     0.23 SECS, INTEGRAL =     10.72 TIME LEFT: 172788.96
 STEP:  47 TIME =     0.23 SECS, INTEGRAL =     10.95 TIME LEFT: 172788.73
 STEP:  48 TIME =     0.23 SECS, INTEGRAL =     11.18 TIME LEFT: 172788.50
 STEP:  49 TIME =     0.22 SECS, INTEGRAL =     11.40 TIME LEFT: 172788.28
 STEP:  50 TIME =     0.22 SECS, INTEGRAL =     11.62 TIME LEFT: 172788.06
 STEP:  51 TIME =     0.22 SECS, INTEGRAL =     11.83 TIME LEFT: 172787.84
 STEP:  52 TIME =     0.22 SECS, INTEGRAL =     12.05 TIME LEFT: 172787.62
 STEP:  53 TIME =     0.22 SECS, INTEGRAL =     12.27 TIME LEFT: 172787.41
 STEP:  54 TIME =     0.23 SECS, INTEGRAL =     12.50 TIME LEFT: 172787.18
 STEP:  55 TIME =     0.22 SECS, INTEGRAL =     12.71 TIME LEFT: 172786.96
 STEP:  56 TIME =     0.22 SECS, INTEGRAL =     12.93 TIME LEFT: 172786.74
 STEP:  57 TIME =     0.22 SECS, INTEGRAL =     13.15 TIME LEFT: 172786.53
 STEP:  58 TIME =     0.22 SECS, INTEGRAL =     13.37 TIME LEFT: 172786.31
 STEP:  59 TIME =     0.22 SECS, INTEGRAL =     13.59 TIME LEFT: 172786.09
 STEP:  60 TIME =     0.22 SECS, INTEGRAL =     13.81 TIME LEFT: 172785.87
 STEP:  61 TIME =     0.22 SECS, INTEGRAL =     14.03 TIME LEFT: 172785.65
 STEP:  62 TIME =     0.22 SECS, INTEGRAL =     14.25 TIME LEFT: 172785.43
 STEP:  63 TIME =     0.22 SECS, INTEGRAL =     14.46 TIME LEFT: 172785.21
 STEP:  64 TIME =     0.22 SECS, INTEGRAL =     14.68 TIME LEFT: 172785.00
 STEP:  65 TIME =     0.22 SECS, INTEGRAL =     14.90 TIME LEFT: 172784.77
 STEP:  66 TIME =     0.22 SECS, INTEGRAL =     15.12 TIME LEFT: 172784.56
 STEP:  67 TIME =     0.22 SECS, INTEGRAL =     15.34 TIME LEFT: 172784.33
 STEP:  68 TIME =     0.22 SECS, INTEGRAL =     15.56 TIME LEFT: 172784.12
 STEP:  69 TIME =     0.22 SECS, INTEGRAL =     15.77 TIME LEFT: 172783.90
 STEP:  70 TIME =     0.22 SECS, INTEGRAL =     15.99 TIME LEFT: 172783.68
 STEP:  71 TIME =     0.22 SECS, INTEGRAL =     16.21 TIME LEFT: 172783.46
 STEP:  72 TIME =     0.22 SECS, INTEGRAL =     16.44 TIME LEFT: 172783.24
 STEP:  73 TIME =     0.22 SECS, INTEGRAL =     16.66 TIME LEFT: 172783.02
 STEP:  74 TIME =     0.22 SECS, INTEGRAL =     16.88 TIME LEFT: 172782.80
 STEP:  75 TIME =     0.22 SECS, INTEGRAL =     17.09 TIME LEFT: 172782.58
 STEP:  76 TIME =     0.25 SECS, INTEGRAL =     17.35 TIME LEFT: 172782.33
 STEP:  77 TIME =     0.24 SECS, INTEGRAL =     17.59 TIME LEFT: 172782.09
 STEP:  78 TIME =     0.23 SECS, INTEGRAL =     17.82 TIME LEFT: 172781.86
 STEP:  79 TIME =     0.24 SECS, INTEGRAL =     18.06 TIME LEFT: 172781.62
 STEP:  80 TIME =     0.24 SECS, INTEGRAL =     18.29 TIME LEFT: 172781.38
 STEP:  81 TIME =     0.25 SECS, INTEGRAL =     18.55 TIME LEFT: 172781.13
 STEP:  82 TIME =     0.24 SECS, INTEGRAL =     18.78 TIME LEFT: 172780.89
 STEP:  83 TIME =     0.24 SECS, INTEGRAL =     19.02 TIME LEFT: 172780.66
 STEP:  84 TIME =     0.25 SECS, INTEGRAL =     19.27 TIME LEFT: 172780.41
 STEP:  85 TIME =     0.24 SECS, INTEGRAL =     19.50 TIME LEFT: 172780.17
 STEP:  86 TIME =     0.23 SECS, INTEGRAL =     19.74 TIME LEFT: 172779.94
 STEP:  87 TIME =     0.23 SECS, INTEGRAL =     19.97 TIME LEFT: 172779.71
 STEP:  88 TIME =     0.22 SECS, INTEGRAL =     20.19 TIME LEFT: 172779.49
 STEP:  89 TIME =     0.22 SECS, INTEGRAL =     20.41 TIME LEFT: 172779.27
 STEP:  90 TIME =     0.22 SECS, INTEGRAL =     20.62 TIME LEFT: 172779.05
 STEP:  91 TIME =     0.22 SECS, INTEGRAL =     20.85 TIME LEFT: 172778.83
 STEP:  92 TIME =     0.23 SECS, INTEGRAL =     21.07 TIME LEFT: 172778.60
 STEP:  93 TIME =     0.25 SECS, INTEGRAL =     21.32 TIME LEFT: 172778.35
 STEP:  94 TIME =     0.24 SECS, INTEGRAL =     21.56 TIME LEFT: 172778.11
 STEP:  95 TIME =     0.23 SECS, INTEGRAL =     21.79 TIME LEFT: 172777.88
 STEP:  96 TIME =     0.24 SECS, INTEGRAL =     22.03 TIME LEFT: 172777.64
 STEP:  97 TIME =     0.22 SECS, INTEGRAL =     22.26 TIME LEFT: 172777.42
 STEP:  98 TIME =     0.22 SECS, INTEGRAL =     22.47 TIME LEFT: 172777.20
 STEP:  99 TIME =     0.22 SECS, INTEGRAL =     22.69 TIME LEFT: 172776.98
 STEP: 100 TIME =     0.22 SECS, INTEGRAL =     22.91 TIME LEFT: 172776.77
 STEP: 101 TIME =     0.22 SECS, INTEGRAL =     23.13 TIME LEFT: 172776.55
 STEP: 102 TIME =     0.22 SECS, INTEGRAL =     23.35 TIME LEFT: 172776.33
 STEP: 103 TIME =     0.23 SECS, INTEGRAL =     23.58 TIME LEFT: 172776.10
 STEP: 104 TIME =     0.23 SECS, INTEGRAL =     23.81 TIME LEFT: 172775.86
 STEP: 105 TIME =     0.23 SECS, INTEGRAL =     24.04 TIME LEFT: 172775.64
 STEP: 106 TIME =     0.23 SECS, INTEGRAL =     24.27 TIME LEFT: 172775.41
 STEP: 107 TIME =     0.23 SECS, INTEGRAL =     24.49 TIME LEFT: 172775.18
 STEP: 108 TIME =     0.22 SECS, INTEGRAL =     24.72 TIME LEFT: 172774.96
 STEP: 109 TIME =     0.22 SECS, INTEGRAL =     24.94 TIME LEFT: 172774.74
 STEP: 110 TIME =     0.22 SECS, INTEGRAL =     25.16 TIME LEFT: 172774.51
 STEP: 111 TIME =     0.23 SECS, INTEGRAL =     25.40 TIME LEFT: 172774.28
 STEP: 112 TIME =     0.22 SECS, INTEGRAL =     25.62 TIME LEFT: 172774.05
 STEP: 113 TIME =     0.22 SECS, INTEGRAL =     25.85 TIME LEFT: 172773.83
 STEP: 114 TIME =     0.22 SECS, INTEGRAL =     26.07 TIME LEFT: 172773.61
 STEP: 115 TIME =     0.23 SECS, INTEGRAL =     26.29 TIME LEFT: 172773.38
 STEP: 116 TIME =     0.23 SECS, INTEGRAL =     26.52 TIME LEFT: 172773.16
 STEP: 117 TIME =     0.22 SECS, INTEGRAL =     26.74 TIME LEFT: 172772.93
 STEP: 118 TIME =     0.22 SECS, INTEGRAL =     26.96 TIME LEFT: 172772.71
 STEP: 119 TIME =     0.22 SECS, INTEGRAL =     27.18 TIME LEFT: 172772.50
 STEP: 120 TIME =     0.22 SECS, INTEGRAL =     27.39 TIME LEFT: 172772.28
 STEP: 121 TIME =     0.21 SECS, INTEGRAL =     27.61 TIME LEFT: 172772.07
 STEP: 122 TIME =     0.22 SECS, INTEGRAL =     27.83 TIME LEFT: 172771.85
 STEP: 123 TIME =     0.22 SECS, INTEGRAL =     28.05 TIME LEFT: 172771.62
 STEP: 124 TIME =     0.22 SECS, INTEGRAL =     28.27 TIME LEFT: 172771.41
 STEP: 125 TIME =     0.21 SECS, INTEGRAL =     28.48 TIME LEFT: 172771.19
 STEP: 126 TIME =     0.21 SECS, INTEGRAL =     28.70 TIME LEFT: 172770.98
 STEP: 127 TIME =     0.22 SECS, INTEGRAL =     28.92 TIME LEFT: 172770.75
 STEP: 128 TIME =     0.22 SECS, INTEGRAL =     29.15 TIME LEFT: 172770.53
 STEP: 129 TIME =     0.23 SECS, INTEGRAL =     29.38 TIME LEFT: 172770.30
 STEP: 130 TIME =     0.21 SECS, INTEGRAL =     29.59 TIME LEFT: 172770.08
 STEP: 131 TIME =     0.22 SECS, INTEGRAL =     29.81 TIME LEFT: 172769.87
 STEP: 132 TIME =     0.22 SECS, INTEGRAL =     30.02 TIME LEFT: 172769.65
 STEP: 133 TIME =     0.22 SECS, INTEGRAL =     30.24 TIME LEFT: 172769.44
 STEP: 134 TIME =     0.21 SECS, INTEGRAL =     30.45 TIME LEFT: 172769.22
 STEP: 135 TIME =     0.21 SECS, INTEGRAL =     30.67 TIME LEFT: 172769.01
 STEP: 136 TIME =     0.21 SECS, INTEGRAL =     30.88 TIME LEFT: 172768.79
 STEP: 137 TIME =     0.22 SECS, INTEGRAL =     31.10 TIME LEFT: 172768.57
 STEP: 138 TIME =     0.22 SECS, INTEGRAL =     31.32 TIME LEFT: 172768.35
 STEP: 139 TIME =     0.23 SECS, INTEGRAL =     31.55 TIME LEFT: 172768.13
 STEP: 140 TIME =     0.22 SECS, INTEGRAL =     31.77 TIME LEFT: 172767.90
 STEP: 141 TIME =     0.22 SECS, INTEGRAL =     32.00 TIME LEFT: 172767.68
 STEP: 142 TIME =     0.23 SECS, INTEGRAL =     32.23 TIME LEFT: 172767.45
 STEP: 143 TIME =     0.21 SECS, INTEGRAL =     32.44 TIME LEFT: 172767.23
 STEP: 144 TIME =     0.21 SECS, INTEGRAL =     32.66 TIME LEFT: 172767.02
 STEP: 145 TIME =     0.22 SECS, INTEGRAL =     32.87 TIME LEFT: 172766.80
 STEP: 146 TIME =     0.21 SECS, INTEGRAL =     33.09 TIME LEFT: 172766.59
 STEP: 147 TIME =     0.22 SECS, INTEGRAL =     33.30 TIME LEFT: 172766.37
 STEP: 148 TIME =     0.21 SECS, INTEGRAL =     33.52 TIME LEFT: 172766.16
 STEP: 149 TIME =     0.21 SECS, INTEGRAL =     33.73 TIME LEFT: 172765.94
 STEP: 150 TIME =     0.21 SECS, INTEGRAL =     33.95 TIME LEFT: 172765.73
 STEP: 151 TIME =     0.22 SECS, INTEGRAL =     34.17 TIME LEFT: 172765.50
 STEP: 152 TIME =     0.22 SECS, INTEGRAL =     34.40 TIME LEFT: 172765.28
 STEP: 153 TIME =     0.22 SECS, INTEGRAL =     34.62 TIME LEFT: 172765.05
 STEP: 154 TIME =     0.22 SECS, INTEGRAL =     34.84 TIME LEFT: 172764.83
 STEP: 155 TIME =     0.22 SECS, INTEGRAL =     35.06 TIME LEFT: 172764.61
 STEP: 156 TIME =     0.22 SECS, INTEGRAL =     35.28 TIME LEFT: 172764.39
 STEP: 157 TIME =     0.21 SECS, INTEGRAL =     35.50 TIME LEFT: 172764.18
 STEP: 158 TIME =     0.22 SECS, INTEGRAL =     35.71 TIME LEFT: 172763.96
 STEP: 159 TIME =     0.22 SECS, INTEGRAL =     35.93 TIME LEFT: 172763.75
 STEP: 160 TIME =     0.22 SECS, INTEGRAL =     36.15 TIME LEFT: 172763.53
 STEP: 161 TIME =     0.21 SECS, INTEGRAL =     36.36 TIME LEFT: 172763.31
 STEP: 162 TIME =     0.21 SECS, INTEGRAL =     36.58 TIME LEFT: 172763.10

(To convert to Hartree/Bohr^2, multiply by (10^(-21) x N x a0^2)/(4.184 x 627.51) = 0.0642)


           FORCE MATRIX IN MILLIDYNES/ANGSTROM


                  C  1       C  2       C  3       C  4       C  5       C  6
 ------------------------------------------------------------------------------
     C    1  13.183060
     C    2   2.678822  11.891931
     C    3   0.826147   3.828105  15.821114
     C    4   0.123996   0.850786   7.541840  15.967993
     C    5   0.021434   0.110414   0.944250   3.511145  12.903831
     C    6   0.018733   0.029601   0.383469   0.818881   3.606044  16.098194
     C    7   0.035322   0.136886   1.654666   0.399059   0.925351   7.769844
     C    8   0.011116   0.038140   0.138423   0.031513   0.115096   0.833820
     C    9   0.004284   0.011589   0.038615   0.019964   0.020890   0.110778
     C   10   0.005806   0.010413   0.053356   0.046567   0.047180   0.771403
     C   11   0.020845   0.040112   0.355483   0.181154   0.693987   3.542506
     O   12   0.009850   0.018045   0.139432   0.075536   0.066866   1.703225
     O   13   0.074157   0.981739   3.658817   1.618600   0.264902   1.553341
     C   14   0.821376   0.186659   1.873147   3.658339   0.714805   0.172791
     O   15   0.122328   0.100033   0.461583   1.767917   0.083760   0.076832
     C   16   2.826084   0.729143   0.079632   0.759756   0.049205   0.039772
     H   17   0.593359   3.182576   0.733800   0.058998   0.019508   0.011861
     H   18   0.592605   3.265510   0.713368   0.062969   0.015185   0.012274
     H   19   0.004188   0.014624   0.043967   0.644605   3.128516   0.643643
     H   20   0.002206   0.004968   0.020538   0.011811   0.019456   0.053308
     H   21   0.002605   0.005883   0.023263   0.012285   0.015429   0.057983
     H   22   0.001524   0.002461   0.012381   0.007668   0.005019   0.042153
     H   23   0.001582   0.003078   0.016698   0.010810   0.009900   0.079612
     H   24   0.605543   0.046817   0.027538   0.051802   0.007636   0.005959
     H   25   0.609536   0.019970   0.041073   0.043153   0.006721   0.008068
     C   26   0.010755   0.030794   0.102875   0.774335   3.441018   0.738036
     C   27   0.009167   0.009661   0.020732   0.066129   0.745749   0.062594
     C   28   0.002694   0.005695   0.013978   0.021735   0.065246   0.026793
     C   29   0.007311   0.015408   0.040941   0.057362   0.097687   0.049582
     H   30   0.000978   0.002285   0.006002   0.007012   0.011835   0.007154
     C   31   0.006913   0.015987   0.041208   0.058971   0.138528   0.048928
     C   32   0.007430   0.016090   0.045463   0.056331   0.795786   0.044913
     H   33   0.000415   0.001773   0.005353   0.005134   0.010366   0.006120
     H   34   0.001014   0.001994   0.011972   0.010202   0.036352   0.028609
     O   35   0.011632   0.010264   0.033368   0.064280   0.118047   0.036712
     H   36   0.021977   0.020261   0.074362   0.095643   0.115456   0.028693
     O   37   0.005074   0.011738   0.030737   0.043978   0.077644   0.035158
     H   38   0.000940   0.002443   0.006327   0.008222   0.015033   0.007392
     C   39   3.212177   0.735216   0.055902   0.057711   0.011746   0.011892
     H   40   0.620201   0.013876   0.014294   0.006676   0.002058   0.002402
     H   41   0.609489   0.048959   0.009051   0.005767   0.001335   0.001499
     H   42   0.610482   0.008960   0.038136   0.008850   0.003541   0.003855


                  C  1       C  2       C  3       C  4       C  5       C  6
 ------------------------------------------------------------------------------
     C   43   3.241322   0.708584   0.058166   0.033511   0.009057   0.011246
     H   44   0.620019   0.012856   0.007394   0.004769   0.001219   0.001754
     H   45   0.610613   0.014280   0.006871   0.005470   0.001521   0.001947
     H   46   0.622515   0.043553   0.013344   0.005937   0.001552   0.001790
     C   47   0.002391   0.005459   0.021511   0.011574   0.007899   0.029892
     H   48   0.000578   0.000962   0.002998   0.001868   0.001080   0.004751
     H   49   0.000540   0.000617   0.002537   0.001623   0.001318   0.005337
     H   50   0.000825   0.001011   0.003818   0.002213   0.001201   0.004791
     C   51   0.002080   0.004418   0.019375   0.012516   0.010619   0.053373
     H   52   0.000827   0.001483   0.005930   0.003810   0.003003   0.008426
     H   53   0.000453   0.000792   0.003091   0.001999   0.001487   0.006427
     H   54   0.000773   0.001114   0.003701   0.002521   0.001771   0.006373


                  C  7       C  8       C  9       C 10       C 11       O 12
 ------------------------------------------------------------------------------
     C    7  15.935719
     C    8   3.842559  11.917397
     C    9   0.814703   2.689836  13.202535
     C   10   0.085678   0.738646   2.840373  11.814855
     C   11   1.791738   0.184980   0.831592   3.254993  16.260439
     O   12   0.406887   0.093795   0.121813   1.343769  10.306544  12.310195
     O   13   3.582534   0.978165   0.076071   0.092250   0.617416   0.247402
     C   14   0.348210   0.038147   0.021702   0.038881   0.175067   0.074974
     O   15   0.145031   0.017719   0.010409   0.018520   0.078815   0.033741
     C   16   0.042040   0.009049   0.005366   0.010166   0.035793   0.015834
     H   17   0.020548   0.004752   0.002203   0.003768   0.013627   0.006357
     H   18   0.022809   0.006395   0.002682   0.003553   0.014091   0.006629
     H   19   0.042961   0.016599   0.005149   0.009336   0.053096   0.019167
     H   20   0.731187   3.207686   0.592019   0.024641   0.065154   0.030875
     H   21   0.707793   3.274587   0.589681   0.046253   0.054307   0.026177
     H   22   0.040902   0.018805   0.608875   3.249281   0.722175   0.075818
     H   23   0.049379   0.044268   0.612481   3.297988   0.710597   0.051861
     H   24   0.008877   0.001813   0.000837   0.001578   0.006170   0.002855
     H   25   0.012401   0.002396   0.001522   0.002415   0.008705   0.003957
     C   26   0.086093   0.026528   0.008209   0.011881   0.037230   0.040580
     C   27   0.045610   0.015112   0.006790   0.012888   0.033181   0.022733
     C   28   0.017425   0.006264   0.002890   0.006394   0.016202   0.010246
     C   29   0.038710   0.015366   0.008029   0.015367   0.042726   0.025356
     H   30   0.005733   0.002065   0.000786   0.002112   0.005320   0.003281
     C   31   0.042230   0.016061   0.007914   0.015792   0.043303   0.024946
     C   32   0.045010   0.015574   0.007175   0.014699   0.046467   0.023689
     H   33   0.005881   0.002083   0.001004   0.001929   0.005300   0.003401
     H   34   0.027827   0.004019   0.002237   0.004403   0.014218   0.006510
     O   35   0.032867   0.010903   0.004497   0.009814   0.026359   0.016234
     H   36   0.029613   0.005750   0.002572   0.005593   0.020979   0.010790
     O   37   0.024820   0.011316   0.005645   0.011167   0.030237   0.017504
     H   38   0.005530   0.002499   0.001041   0.002545   0.006274   0.003651
     C   39   0.017726   0.004311   0.002425   0.003620   0.013307   0.006261
     H   40   0.003911   0.001133   0.000532   0.000809   0.002600   0.001274
     H   41   0.002106   0.000495   0.000397   0.000514   0.001679   0.000713
     H   42   0.005578   0.001407   0.000919   0.001266   0.004164   0.001894
     C   43   0.021078   0.005757   0.002429   0.003435   0.012999   0.005929
     H   44   0.003388   0.001148   0.000677   0.000607   0.002188   0.001183
     H   45   0.003393   0.001051   0.000827   0.000755   0.002615   0.001501
     H   46   0.002755   0.000852   0.000527   0.000681   0.002258   0.001181
     C   47   0.054014   0.699864   3.242039   0.724181   0.081688   0.060111
     H   48   0.006806   0.016482   0.616383   0.045141   0.014838   0.006748
     H   49   0.011947   0.042043   0.620530   0.012069   0.015934   0.011357
     H   50   0.006397   0.016799   0.609960   0.013933   0.014446   0.011461
     C   51   0.054368   0.732917   3.200503   0.746029   0.091644   0.052865
     H   52   0.036760   0.009548   0.610800   0.010589   0.046374   0.014109


                  C  7       C  8       C  9       C 10       C 11       O 12
 ------------------------------------------------------------------------------
     H   53   0.009849   0.046312   0.620750   0.013514   0.024111   0.012804
     H   54   0.013511   0.013863   0.620725   0.045756   0.015280   0.009126


                  O 13       C 14       O 15       C 16       H 17       H 18
 ------------------------------------------------------------------------------
     O   13   9.023749
     C   14   0.638942  16.040258
     O   15   0.268544   9.611505  11.609204
     C   16   0.079950   3.361091   1.339323  11.840562
     H   17   0.027533   0.067213   0.034140   0.022415   4.064674
     H   18   0.023252   0.055722   0.028477   0.045853   0.412094   4.126069
     H   19   0.013049   0.051870   0.011824   0.008309   0.002872   0.002703
     H   20   0.031811   0.012292   0.006119   0.003008   0.001278   0.001358
[...]
 T-DIPOLE    0.8230        C 43 --  H 45          +14.9% ( 39.9%)    97.9%
 TRAVEL      0.1311        C 43 --  H 46          +13.5% ( 37.9%)    97.6%
 RED. MASS   0.2972        C 39 --  H 41          +12.6% ( 36.7%)    86.8%
 EFF. MASS   1.4618        C 39 --  H 42          +10.6% ( 33.5%)    84.2%

 VIBRATION  143  143A       ATOM PAIR        ENERGY CONTRIBUTION    RADIAL
 FREQ.      2683.93        C 47 --  H 48          +54.7% ( 76.3%)    99.3%
 T-DIPOLE    1.0168        C 47 --  H 49          +24.7% ( 51.3%)    92.7%
 TRAVEL      0.1311        C 47 --  H 50           +7.8% ( 28.7%)    71.9%
 RED. MASS   0.3877        C 51 --  H 53           +6.7% ( 26.8%)    98.8%
 EFF. MASS   1.4616

 VIBRATION  144  144A       ATOM PAIR        ENERGY CONTRIBUTION    RADIAL
 FREQ.      2686.11        C 51 --  H 52          +58.3% ( 78.8%)    99.2%
 T-DIPOLE    0.8980        C 51 --  H 53          +26.6% ( 53.2%)    93.0%
 TRAVEL      0.1308        C 51 --  H 54           +7.3% ( 27.9%)    69.5%
 RED. MASS   0.4355        C 47 --  H 50           +4.4% ( 21.7%)    99.5%
 EFF. MASS   1.4675

 VIBRATION  145  145A       ATOM PAIR        ENERGY CONTRIBUTION    RADIAL
 FREQ.      2688.07        C 39 --  H 42          +52.2% ( 74.5%)    98.2%
 T-DIPOLE    0.7253        C 39 --  H 41          +44.4% ( 68.7%)    97.3%
 TRAVEL      0.1311        C 39 --  H 40           +1.0% ( 10.3%)     4.1%
 RED. MASS   0.4870        C 43 --  H 44           +0.9% (  9.8%)    98.8%
 EFF. MASS   1.4605

 VIBRATION  146  146A       ATOM PAIR        ENERGY CONTRIBUTION    RADIAL
 FREQ.      2716.68        C  2 --  H 18          +51.9% ( 70.8%)    97.8%
 T-DIPOLE    1.3022        C  2 --  H 17          +35.1% ( 58.2%)    95.4%
 TRAVEL      0.1408        C 16 --  H 24           +6.6% ( 25.3%)    98.2%
 RED. MASS   0.3904        C 16 --  H 25           +3.9% ( 19.3%)    95.5%
 EFF. MASS   1.2518

 VIBRATION  147  147A       ATOM PAIR        ENERGY CONTRIBUTION    RADIAL
 FREQ.      2721.96        C  8 --  H 21          +53.0% ( 71.6%)    97.8%
 T-DIPOLE    1.5316        C  8 --  H 20          +35.9% ( 58.8%)    95.3%
 TRAVEL      0.1405        C 10 --  H 23           +4.3% ( 20.5%)    97.7%
 RED. MASS   0.4049        C 10 --  H 22           +3.1% ( 17.3%)    96.5%
 EFF. MASS   1.2540

 VIBRATION  148  148A       ATOM PAIR        ENERGY CONTRIBUTION    RADIAL
 FREQ.      2726.43        C 16 --  H 24          +52.2% ( 70.9%)    97.9%
 T-DIPOLE    1.1488        C 16 --  H 25          +33.5% ( 56.8%)    94.9%
 TRAVEL      0.1399        C  2 --  H 18           +6.2% ( 24.5%)    97.6%
 RED. MASS   0.3821        C  2 --  H 17           +4.6% ( 20.9%)    94.8%
 EFF. MASS   1.2632

 VIBRATION  149  149A       ATOM PAIR        ENERGY CONTRIBUTION    RADIAL
 FREQ.      2730.76        C 32 --  H 34          +87.3% ( 94.5%)   100.0%
 T-DIPOLE    0.8462        C 31 --  H 33           +9.6% ( 31.3%)    99.9%
 TRAVEL      0.1334        C 31 --  C 32           +1.0% ( 10.0%)     6.6%
 RED. MASS   0.7510        C 26 --  C 32           +1.0% (  9.9%)    19.2%
 EFF. MASS   1.3866

 VIBRATION  150  150A       ATOM PAIR        ENERGY CONTRIBUTION    RADIAL
 FREQ.      2734.14        C 10 --  H 23          +52.6% ( 71.2%)    97.6%
 T-DIPOLE    1.0732        C 10 --  H 22          +37.2% ( 59.9%)    95.3%
 TRAVEL      0.1399        C  8 --  H 21           +4.4% ( 20.7%)    97.5%
 RED. MASS   0.4092        C  8 --  H 20           +3.2% ( 17.7%)    94.6%
 EFF. MASS   1.2598

 VIBRATION  151  151A       ATOM PAIR        ENERGY CONTRIBUTION    RADIAL
 FREQ.      2744.58        C 28 --  H 30          +77.1% ( 88.7%)   100.0%
 T-DIPOLE    1.8214        C 31 --  H 33          +20.4% ( 45.6%)   100.0%
 TRAVEL      0.1336        C 27 --  C 28           +0.8% (  9.1%)    23.7%
 RED. MASS   0.6174        C 28 --  C 29           +0.8% (  9.0%)    19.5%
 EFF. MASS   1.3768

 VIBRATION  152  152A       ATOM PAIR        ENERGY CONTRIBUTION    RADIAL
 FREQ.      2754.72        C 31 --  H 33          +68.0% ( 83.2%)   100.0%
 T-DIPOLE    0.9900        C 28 --  H 30          +19.7% ( 44.8%)   100.0%
 TRAVEL      0.1310        C 32 --  H 34           +9.8% ( 31.6%)    99.8%
 RED. MASS   0.4970        C 31 --  C 32           +1.0% (  9.9%)    62.7%
 EFF. MASS   1.4268

 VIBRATION  153  153A       ATOM PAIR        ENERGY CONTRIBUTION    RADIAL
 FREQ.      2787.02        C 47 --  H 48          +17.6% ( 40.3%)    95.8%
 T-DIPOLE    0.6180        C 47 --  H 50          +17.4% ( 40.1%)    95.5%
 TRAVEL      0.1458        C 47 --  H 49          +17.0% ( 39.6%)    95.6%
 RED. MASS   0.1635        C 51 --  H 52          +16.5% ( 39.1%)    95.9%
 EFF. MASS   1.1380        C 51 --  H 53          +15.9% ( 38.4%)    95.8%
                           C 51 --  H 54          +15.2% ( 37.5%)    95.5%

 VIBRATION  154  154A       ATOM PAIR        ENERGY CONTRIBUTION    RADIAL
 FREQ.      2788.15        C 43 --  H 46          +28.0% ( 50.9%)    95.8%
 T-DIPOLE    0.6790        C 43 --  H 45          +26.6% ( 49.5%)    95.5%
 TRAVEL      0.1457        C 43 --  H 44          +26.3% ( 49.3%)    95.5%
 RED. MASS   0.2269        C 39 --  H 41           +7.0% ( 25.4%)    96.8%
 EFF. MASS   1.1392

 VIBRATION  155  155A       ATOM PAIR        ENERGY CONTRIBUTION    RADIAL
 FREQ.      2791.31        C 51 --  H 53          +17.3% ( 40.0%)    95.4%
 T-DIPOLE    0.5421        C 51 --  H 52          +17.1% ( 39.7%)    95.6%
 TRAVEL      0.1451        C 51 --  H 54          +16.9% ( 39.5%)    95.2%
 RED. MASS   0.1595        C 47 --  H 48          +16.5% ( 39.0%)    95.6%
 EFF. MASS   1.1481        C 47 --  H 49          +15.4% ( 37.7%)    95.1%
                           C 47 --  H 50          +15.1% ( 37.4%)    95.2%

 VIBRATION  156  156A       ATOM PAIR        ENERGY CONTRIBUTION    RADIAL
 FREQ.      2792.24        C 39 --  H 41          +27.8% ( 50.7%)    95.7%
 T-DIPOLE    0.5443        C 39 --  H 42          +26.3% ( 49.3%)    95.5%
 TRAVEL      0.1451        C 39 --  H 40          +26.1% ( 49.1%)    95.3%
 RED. MASS   0.2229        C 43 --  H 46           +6.3% ( 24.2%)    95.3%
 EFF. MASS   1.1471

 SYMMETRY NUMBER FOR POINT-GROUP C1  =  1


          SYSTEM IS A GROUND STATE


                                                                                                                                                                                                                                                 
 SJ000002349-1_T001S001I001C04: Free energy calculation                                                                                                                                                                                          


          MOLECULE IS NOT LINEAR

          THERE ARE  156 GENUINE VIBRATIONS IN THIS SYSTEM
          THIS THERMODYNAMICS CALCULATION IS LIMITED TO
          MOLECULES WHICH HAVE NO INTERNAL ROTATIONS




                    CALCULATED THERMODYNAMIC PROPERTIES
                                          *
   TEMP. (K)   PARTITION FUNCTION   H.O.F.    ENTHALPY  HEAT CAPACITY ENTROPY
                                   KCAL/MOL   CAL/MOLE    CAL/K/MOL  CAL/K/MOL


 298.00  VIB.     0.3617D+10                 14746.2850    99.5025    93.2203
         ROT.     0.1494D+08                   888.2813     2.9808    35.8091
         INT.     0.5405D+17                 15634.5663   102.4833   129.0294
         TRA.     0.7231D+28                  1480.4688     4.9680    43.7144
         TOT.                     -231.848   17115.0352   107.4513   172.7438

 200.00  VIB.     0.1023D+07                  6605.1152    66.7981    60.5254
         ROT.     0.8216D+07                   596.1620     2.9808    34.6204
         INT.     0.8407D+13                  7201.2771    69.7789    95.1459
         TRA.     0.3976D+28                   993.6033     4.9680    41.7332
         TOT.                     -240.768    8194.8804    74.7469   136.8791

 210.00  VIB.     0.2350D+07                  7289.4920    70.0796    63.8639
         ROT.     0.8840D+07                   625.9700     2.9808    34.7658
         INT.     0.2077D+14                  7915.4620    73.0605    98.6297
         TRA.     0.4278D+28                  1043.2834     4.9680    41.9756
         TOT.                     -240.004    8958.7455    78.0285   140.6054

 220.00  VIB.     0.5400D+07                  8006.7593    73.3765    67.2000
         ROT.     0.9479D+07                   655.7781     2.9808    34.9045
         INT.     0.5119D+14                  8662.5374    76.3573   102.1045
         TRA.     0.4587D+28                  1092.9636     4.9680    42.2067
         TOT.                     -239.207    9755.5010    81.3254   144.3113

 230.00  VIB.     0.1242D+08                  8757.0788    76.6902    70.5348
         ROT.     0.1013D+08                   685.5862     2.9808    35.0370
         INT.     0.1258D+15                  9442.6650    79.6710   105.5718
         TRA.     0.4903D+28                  1142.6437     4.9680    42.4276
         TOT.                     -238.377   10585.3088    84.6390   147.9994

 240.00  VIB.     0.2857D+08                  9540.6178    80.0202    73.8690
         ROT.     0.1080D+08                   715.3943     2.9808    35.1639
         INT.     0.3086D+15                 10256.0121    83.0011   109.0329
         TRA.     0.5226D+28                  1192.3239     4.9680    42.6390
         TOT.                     -237.514   11448.3360    87.9691   151.6719

 250.00  VIB.     0.6578D+08                 10357.5326    83.3649    77.2033
         ROT.     0.1148D+08                   745.2024     2.9808    35.2856
         INT.     0.7553D+15                 11102.7350    86.3457   112.4889
         TRA.     0.5556D+28                  1242.0041     4.9680    42.8418
         TOT.                     -236.618   12344.7391    91.3138   155.3307

 260.00  VIB.     0.1515D+09                 11207.9551    86.7212    80.5383
         ROT.     0.1218D+08                   775.0105     2.9808    35.4025
         INT.     0.1845D+16                 11982.9656    89.7020   115.9408
         TRA.     0.5893D+28                  1291.6842     4.9680    43.0367
         TOT.                     -235.688   13274.6498    94.6700   158.9775

 270.00  VIB.     0.3489D+09                 12091.9814    90.0850    83.8743
         ROT.     0.1289D+08                   804.8186     2.9808    35.5150
         INT.     0.4497D+16                 12896.8001    93.0658   119.3892
         TRA.     0.6236D+28                  1341.3644     4.9680    43.2242
         TOT.                     -234.725   14238.1645    98.0338   162.6134

 280.00  VIB.     0.8041D+09                 13009.6642    93.4516    87.2113
         ROT.     0.1361D+08                   834.6267     2.9808    35.6234
         INT.     0.1094D+17                 13844.2909    96.4324   122.8347
         TRA.     0.6586D+28                  1391.0445     4.9680    43.4048
         TOT.                     -233.727   15235.3355   101.4005   166.2395

 290.00  VIB.     0.1854D+10                 13961.0068    96.8161    90.5493
         ROT.     0.1435D+08                   864.4348     2.9808    35.7280
         INT.     0.2659D+17                 14825.4416    99.7969   126.2773
         TRA.     0.6942D+28                  1440.7247     4.9680    43.5792
         TOT.                     -232.697   16266.1664   104.7649   169.8565

 300.00  VIB.     0.4275D+10                 14945.9605   100.1730    93.8882
         ROT.     0.1509D+08                   894.2429     2.9808    35.8290
         INT.     0.6453D+17                 15840.2035   103.1538   129.7172
         TRA.     0.7304D+28                  1490.4049     4.9680    43.7476
         TOT.                     -231.632   17330.6083   108.1218   173.4648

 310.00  VIB.     0.9861D+10                 15964.4234   103.5170    97.2274
         ROT.     0.1586D+08                   924.0510     2.9808    35.9268
         INT.     0.1563D+18                 16888.4745   106.4978   133.1541
         TRA.     0.7672D+28                  1540.0850     4.9680    43.9105
         TOT.                     -230.534   18428.5595   111.4659   177.0646

 320.00  VIB.     0.2275D+11                 17016.2411   106.8431   100.5665
         ROT.     0.1663D+08                   953.8591     2.9808    36.0214
         INT.     0.3783D+18                 17970.1002   109.8239   136.5879
         TRA.     0.8046D+28                  1589.7652     4.9680    44.0682
         TOT.                     -229.403   19559.8654   114.7919   180.6561

 330.00  VIB.     0.5251D+11                 18101.2085   110.1462   103.9048
         ROT.     0.1741D+08                   983.6672     2.9808    36.1131
         INT.     0.9144D+18                 19084.8757   113.1270   140.0180
         TRA.     0.8426D+28                  1639.4454     4.9680    44.2211
         TOT.                     -228.238   20724.3211   118.0950   184.2391

 340.00  VIB.     0.1212D+12                 19219.0731   113.4218   107.2418
         ROT.     0.1821D+08                  1013.4753     2.9808    36.2021
         INT.     0.2207D+19                 20232.5484   116.4026   143.4439
         TRA.     0.8812D+28                  1689.1255     4.9680    44.3694
         TOT.                     -227.041   21921.6739   121.3706   187.8133

 350.00  VIB.     0.2798D+12                 20369.5382   116.6656   110.5764
         ROT.     0.1902D+08                  1043.2834     2.9808    36.2885
         INT.     0.5323D+19                 21412.8216   119.6465   146.8650
         TRA.     0.9204D+28                  1738.8057     4.9680    44.5134
         TOT.                     -225.811   23151.6273   124.6145   191.3784

 360.00  VIB.     0.6461D+12                 21552.2675   119.8740   113.9081
         ROT.     0.1984D+08                  1073.0915     2.9808    36.3725
         INT.     0.1282D+20                 22625.3590   122.8548   150.2806
         TRA.     0.9601D+28                  1788.4859     4.9680    44.6534
         TOT.                     -224.549   24413.8449   127.8228   194.9340

 370.00  VIB.     0.1492D+13                 22766.8891   123.0436   117.2358
         ROT.     0.2067D+08                  1102.8996     2.9808    36.4542
         INT.     0.3085D+20                 23869.7887   126.0244   153.6900
         TRA.     0.1000D+29                  1838.1660     4.9680    44.7895
         TOT.                     -223.255   25707.9547   130.9924   198.4795

 380.00  VIB.     0.3445D+13                 24012.9999   126.1714   120.5588
         ROT.     0.2152D+08                  1132.7077     2.9808    36.5337
         INT.     0.7414D+20                 25145.7076   129.1522   157.0925
         TRA.     0.1041D+29                  1887.8462     4.9680    44.9220
         TOT.                     -221.929   27033.5537   134.1202   202.0144

 390.00  VIB.     0.7955D+13                 25290.1701   129.2551   123.8761
         ROT.     0.2237D+08                  1162.5158     2.9808    36.6111
         INT.     0.1780D+21                 26452.6859   132.2359   160.4872
         TRA.     0.1083D+29                  1937.5263     4.9680    45.0510
         TOT.                     -220.573   28390.2122   137.2039   205.5383

 400.00  VIB.     0.1836D+14                 26597.9474   132.2925   127.1870
         ROT.     0.2324D+08                  1192.3239     2.9808    36.6866
         INT.     0.4268D+21                 27790.2713   135.2733   163.8735
         TRA.     0.1125D+29                  1987.2065     4.9680    45.1768
         TOT.                     -219.185   29777.4778   140.2414   209.0504

   *: NOTE: HEATS OF FORMATION ARE RELATIVE TO THE
             ELEMENTS IN THEIR STANDARD STATE AT 298K
              (=  Standard Enthalpy of Formation).
            Heat of Formation at T is calculated as [Escf + (HT - H298.15)-.

            Hvib:  Zero-point energy is not included.
                   Wi < 100 cm-1 are not included.
            Hrot = (3/2)RT
            Htra = (3/2)RT + pV = (5/2)RT

            Heat capacity is Cp, not Cv

                 See Section 8.20 in Manual for further information.   (by TH).

           FORCE CONSTANT IN CARTESIAN COORDINATES (Millidynes/A)

    ATOM   CHEMICAL       X               Y               Z
   NUMBER   SYMBOL  FORCE CONSTANT  FORCE CONSTANT  FORCE CONSTANT

      1       C        7.274877        7.831312        7.695396
      2       C        6.843644        7.489539        6.141185
      3       C        7.782005       12.205202        3.991739
      4       C        9.058140       11.474522        3.758423
      5       C        7.566903        7.456112        7.266294
      6       C        7.513186       11.875283        5.084267
      7       C        8.026767       11.089737        4.937814
      8       C        7.078358        6.761837        6.676708
      9       C        7.996170        7.209341        7.620819
     10       C        6.936843        6.882757        6.566776
     11       C        8.107630       12.499796        4.235089
     12       O        3.145680        9.758719        0.848937
     13       O        5.575051        5.862223        1.801786
     14       C        9.094173       11.700703        3.883098
     15       O        4.366315        7.966656        1.050601
     16       C        6.763746        7.409098        6.241509
     17       H        1.099769        1.481638        2.665943
     18       H        1.115816        1.675030        2.531304
     19       H        2.018840        2.309277        1.199621
     20       H        2.616205        0.835346        1.797006
     21       H        0.636911        2.652204        2.056187
     22       H        2.359009        0.579622        2.332564
     23       H        0.796390        3.157467        1.433671
     24       H        4.040840        0.747862        0.580225
     25       H        0.618229        1.126890        3.482477
     26       C        8.609642        5.063838        9.446196
     27       C        8.520950        5.293123        9.816334
     28       C        8.305445        4.763196        8.998095
     29       C        9.060294        5.517036        9.039846
     30       H        1.908382        1.769950        1.639841
     31       C        7.606568        5.082843        9.371555
     32       C        7.947451        4.979329        9.292967
     33       H        3.141766        0.903793        1.321319
     34       H        1.931769        1.823470        1.685733
     35       O        5.313864        2.447583        3.336822
     36       H        1.107965        0.828794        1.882024
     37       O        3.106767        2.226083        5.897276
     38       H        1.387571        1.438873        1.554237
     39       C        6.405029        6.419240        6.808606
     40       H        0.870409        2.010815        2.469446
     41       H        4.129853        0.534428        0.678268
     42       H        0.894215        3.485686        0.975362
     43       C        6.415503        6.851464        6.396429
     44       H        0.910838        2.387290        2.034139
     45       H        0.883145        0.992663        3.457384
     46       H        4.108406        0.704263        0.527466
     47       C        6.901007        6.346076        6.416399
     48       H        0.793850        2.676351        1.868320
     49       H        0.965163        2.912108        1.450378
     50       H        2.186827        0.533483        2.608019
     51       C        6.629145        6.338951        6.684285
     52       H        3.927288        0.519453        0.905535
     53       H        0.708152        3.086947        1.527956
     54       H        0.633134        2.501061        2.194968



 TOTAL CPU TIME:            65.35 SECONDS

 == MOPAC DONE ==
