 *******************************************************************************
 ** Site#:  958            For non-commercial use only         Version 9.015L **
 *******************************************************************************
 ** Cite this work as: MOPAC2009, James J. P. Stewart, Stewart Computational  **
 ** Chemistry, Version 9.015L web: HTTP://OpenMOPAC.net                       **
 *******************************************************************************
 **                                                                           **
 **                                MOPAC2009                                  **
 **                                                                           **
 *******************************************************************************

                            PM6 CALCULATION RESULTS


 *******************************************************************************
 *  CALCULATION DONE:                                Thu Sep  8 14:10:38 2011  *
 *  PM6      - The PM6 Hamiltonian to be used
 *  PDBOUT   - PRINT GEOMETY IN PDB FORMAT
 *  MOZYME   - USE LOCALIZED M.O.s IN SOLVING THE SCF EQUATIONS
 *
 *
 *
 *                 CHARGE ON SYSTEM =     0
 *
 *
 *
 *  EPS= 78.400
 *  RSOLV=  1.300
 *  LET      - OVERRIDE SOME SAFETY CHECKS
 *  XYZ      - CARTESIAN COORDINATE SYSTEM TO BE USED
 *  LBFGS    - USE THE LBFGS GEOMETRY OPTIMIZER
 *  1SCF     - DO 1 SCF AND THEN STOP 
 *  T=       - A TIME OF  0.3E+08 SECONDS REQUESTED
 *  DUMP=N   - RESTART FILE WRITTEN EVERY  4320.000 SECONDS
 *  DDMIN=   - MINIMUM TRUST RADIUS  0.000 ANG/RAD
 *  GNORM=   - EXIT WHEN GRADIENT NORM DROPS BELOW .150    
 *  RELSCF   - DEFAULT SCF CRITERION MULTIPLIED BY   0.100    
 *             (DEFAULT SCFCRT= 0.00010)
 *  MULLIK   - THE MULLIKEN ANALYSIS TO BE PERFORMED
 *******************************************************************************
 PM6 T=31371014 DUMP=4320 XYZ EPS=78.40 RSOLV=1.30 MULLIK LBFGS MOZYME PDBOUT +
 CHARGE=0 RELSCF=0.1 LET DDMIN=0.0 GNORM=0.15 1SCF
 SJ000002349-1_T001S001I001C08_001: Geometry optimization step

   ATOM   CHEMICAL          X               Y              Z
  NUMBER   SYMBOL      (ANGSTROMS)     (ANGSTROMS)    (ANGSTROMS)
 
     1       C         -5.1700000  *  -20.419000  *   10.701000  *
     2       C         -3.9010000  *  -21.180000  *   10.315000  *
     3       C         -3.8950000  *  -22.545000  *   10.961000  *
     4       C         -5.0560000  *  -23.193000  *   11.177000  *
     5       C         -5.0520000  *  -24.557000  *   11.820000  *
     6       C         -3.6830000  *  -25.184000  *   11.733000  *
     7       C         -2.6040000  *  -24.416000  *   11.483000  *
     8       C         -1.2350000  *  -25.047000  *   11.393000  *
     9       C         -1.1450000  *  -26.251000  *   12.332000  *
    10       C         -2.2050000  *  -27.240000  *   11.844000  *
    11       C         -3.5520000  *  -26.573000  *   11.915000  *
    12       O         -4.5400000  *  -27.243000  *   12.131000  *
    13       O         -2.7190000  *  -23.089000  *   11.316000  *
    14       C         -6.2830000  *  -22.613000  *   10.806000  *
    15       O         -7.3160000  *  -23.221000  *   11.005000  *
    16       C         -6.3360000  *  -21.253000  *   10.167000  *
    17       H         -3.8650000  *  -21.294000  *    9.232000  *
    18       H         -3.0280000  *  -20.619000  *   10.647000  *
    19       H         -5.3360000  *  -24.460000  *   12.868000  *
    20       H         -1.0550000  *  -25.376000  *   10.369000  *
    21       H         -0.4800000  *  -24.314000  *   11.673000  *
    22       H         -1.9920000  *  -27.528000  *   10.815000  *
    23       H         -2.2010000  *  -28.125000  *   12.481000  *
    24       H         -7.2790000  *  -20.767000  *   10.418000  *
    25       H         -6.2510000  *  -21.352000  *    9.086000  *
    26       C         -6.0470000  *  -25.441000  *   11.115000  *
    27       C         -7.1620000  *  -25.909000  *   11.796000  *
    28       C         -8.0780000  *  -26.723000  *   11.146000  *
    29       C         -7.8780000  *  -27.066000  *    9.819000  *
    30       H         -8.9460000  *  -27.089000  *   11.675000  *
    31       C         -6.7610000  *  -26.595000  *    9.142000  *
    32       C         -5.8530000  *  -25.780000  *    9.790000  *
    33       H         -6.6050000  *  -26.863000  *    8.108000  *
    34       H         -4.9850000  *  -25.414000  *    9.262000  *
    35       O         -7.3560000  *  -25.572000  *   13.098000  *
    36       H         -7.1190000  *  -24.657000  *   13.306000  *
    37       O         -8.7740000  *  -27.864000  *    9.179000  *
    38       H         -9.5120000  *  -28.149000  *    9.734000  *
    39       C         -5.2660000  *  -20.290000  *   12.223000  *
    40       H         -6.1390000  *  -20.837000  *   12.579000  *
    41       H         -4.3670000  *  -20.702000  *   12.680000  *
    42       H         -5.3620000  *  -19.238000  *   12.493000  *
    43       C         -5.1710000  *  -19.032000  *   10.054000  *
    44       H         -5.7600000  *  -19.060000  *    9.137000  *
    45       H         -5.6080000  *  -18.310000  *   10.744000  *
    46       H         -4.1480000  *  -18.739000  *    9.821000  *
    47       C          0.2450000  *  -26.883000  *   12.248000  *
    48       H          0.1470000  *  -27.967000  *   12.172000  *
    49       H          0.7650000  *  -26.504000  *   11.368000  *
    50       H          0.8140000  *  -26.632000  *   13.142000  *
    51       C         -1.4440000  *  -25.821000  *   13.770000  *
    52       H         -0.5780000  *  -26.024000  *   14.398000  *
    53       H         -1.6660000  *  -24.754000  *   13.791000  *
    54       H         -2.3040000  *  -26.377000  *   14.144000  *
 


          CARTESIAN COORDINATES 

    NO.       ATOM         X         Y         Z

     1         C       -5.1700  -20.4190   10.7010
     2         C       -3.9010  -21.1800   10.3150
     3         C       -3.8950  -22.5450   10.9610
     4         C       -5.0560  -23.1930   11.1770
     5         C       -5.0520  -24.5570   11.8200
     6         C       -3.6830  -25.1840   11.7330
     7         C       -2.6040  -24.4160   11.4830
     8         C       -1.2350  -25.0470   11.3930
     9         C       -1.1450  -26.2510   12.3320
    10         C       -2.2050  -27.2400   11.8440
    11         C       -3.5520  -26.5730   11.9150
    12         O       -4.5400  -27.2430   12.1310
    13         O       -2.7190  -23.0890   11.3160
    14         C       -6.2830  -22.6130   10.8060
    15         O       -7.3160  -23.2210   11.0050
    16         C       -6.3360  -21.2530   10.1670
    17         H       -3.8650  -21.2940    9.2320
    18         H       -3.0280  -20.6190   10.6470
    19         H       -5.3360  -24.4600   12.8680
    20         H       -1.0550  -25.3760   10.3690
    21         H       -0.4800  -24.3140   11.6730
    22         H       -1.9920  -27.5280   10.8150
    23         H       -2.2010  -28.1250   12.4810
    24         H       -7.2790  -20.7670   10.4180
    25         H       -6.2510  -21.3520    9.0860
    26         C       -6.0470  -25.4410   11.1150
    27         C       -7.1620  -25.9090   11.7960
    28         C       -8.0780  -26.7230   11.1460
    29         C       -7.8780  -27.0660    9.8190
    30         H       -8.9460  -27.0890   11.6750
    31         C       -6.7610  -26.5950    9.1420
    32         C       -5.8530  -25.7800    9.7900
    33         H       -6.6050  -26.8630    8.1080
    34         H       -4.9850  -25.4140    9.2620
    35         O       -7.3560  -25.5720   13.0980
    36         H       -7.1190  -24.6570   13.3060
    37         O       -8.7740  -27.8640    9.1790
    38         H       -9.5120  -28.1490    9.7340
    39         C       -5.2660  -20.2900   12.2230
    40         H       -6.1390  -20.8370   12.5790
    41         H       -4.3670  -20.7020   12.6800
    42         H       -5.3620  -19.2380   12.4930
    43         C       -5.1710  -19.0320   10.0540
    44         H       -5.7600  -19.0600    9.1370
    45         H       -5.6080  -18.3100   10.7440
    46         H       -4.1480  -18.7390    9.8210
    47         C        0.2450  -26.8830   12.2480
    48         H        0.1470  -27.9670   12.1720
    49         H        0.7650  -26.5040   11.3680
    50         H        0.8140  -26.6320   13.1420
    51         C       -1.4440  -25.8210   13.7700
    52         H       -0.5780  -26.0240   14.3980
    53         H       -1.6660  -24.7540   13.7910
    54         H       -2.3040  -26.3770   14.1440

 General Reference for PM6:
 "Optimization of Parameters for Semiempirical Methods V: Modification of NDDO Approximations
 and Application to 70 Elements", J. J. P. Stewart, J. Mol. Mod., 13, 1173-1213 (2007)
 URL: http://www.springerlink.com/content/ar33482301010477/fulltext.pdf

           Empirical Formula: C23 H26 O5  =    54 atoms



      MOLECULAR POINT GROUP   :   C1  
 
   NUMBER AND TYPES OF BONDS IDENTIFIED
 
         SIGMA BONDS               57
         LONE PAIRS                10
         NORMAL PI BONDS            6
         AROMATIC RING PI BONDS     1
 

                  Ramachandran Angles
              Residue    phi    psi  omega

  
  SCF CRITERION =    0.1000E-02

 -------------------------------------------------------------------------------
 PM6 T=31371014 DUMP=4320 XYZ EPS=78.40 RSOLV=1.30 MULLIK LBFGS MOZYME PDBOUT +
 CHARGE=0 RELSCF=0.1 LET DDMIN=0.0 GNORM=0.15 1SCF
 SJ000002349-1_T001S001I001C08_001: Geometry optimization step



     1SCF WAS SPECIFIED, SO BFGS WAS NOT USED                 
     SCF FIELD WAS ACHIEVED                                   


                               PM6     CALCULATION
                                                       MOPAC2009 (Version: 9.015L)
                                                       Thu Sep  8 14:10:39 2011




          FINAL HEAT OF FORMATION =       -184.88944 KCAL =    -773.57744 KJ
          VAN DER WAALS AREA      =        360.77 SQUARE ANGSTROMS


          TOTAL ENERGY            =      -4642.47777 EV
          ELECTRONIC ENERGY       =     -41769.97808 EV
          CORE-CORE REPULSION     =      37127.50031 EV
          DIELECTRIC ENERGY       =         -1.41011 EV
          COSMO AREA              =        360.77 SQUARE ANGSTROMS
          COSMO VOLUME            =        462.27 CUBIC ANGSTROMS

          NO. OF FILLED LEVELS    =         74
          MOLECULAR WEIGHT        =        382.455

          MOLECULAR DIMENSIONS (Angstroms)

            Atom       Atom       Distance
            H    50    H    38    10.97916
            H    45    H    48    10.39097
            H    17    H    36     5.01674


          SCF CALCULATIONS        =          2
          COMPUTATION TIME        =          0.558 SECONDS




   ATOM           CHEMICAL             X               Y              Z
  NUMBER           SYMBOL         (ANGSTROMS)     (ANGSTROMS)    (ANGSTROMS)
 
     1       C(     1  C     )   -5.1700000  *  -20.419000  *   10.701000  *
     2       C(     2  C     )   -3.9010000  *  -21.180000  *   10.315000  *
     3       C(     3  C     )   -3.8950000  *  -22.545000  *   10.961000  *
     4       C(     4  C     )   -5.0560000  *  -23.193000  *   11.177000  *
     5       C(     5  C     )   -5.0520000  *  -24.557000  *   11.820000  *
     6       C(     6  C     )   -3.6830000  *  -25.184000  *   11.733000  *
     7       C(     7  C     )   -2.6040000  *  -24.416000  *   11.483000  *
     8       C(     8  C     )   -1.2350000  *  -25.047000  *   11.393000  *
     9       C(     9  C     )   -1.1450000  *  -26.251000  *   12.332000  *
    10       C(    10  C     )   -2.2050000  *  -27.240000  *   11.844000  *
    11       C(    11  C     )   -3.5520000  *  -26.573000  *   11.915000  *
    12       O(    12  O     )   -4.5400000  *  -27.243000  *   12.131000  *
    13       O(    13  O     )   -2.7190000  *  -23.089000  *   11.316000  *
    14       C(    14  C     )   -6.2830000  *  -22.613000  *   10.806000  *
    15       O(    15  O     )   -7.3160000  *  -23.221000  *   11.005000  *
    16       C(    16  C     )   -6.3360000  *  -21.253000  *   10.167000  *
    17       H(    17  C     )   -3.8650000  *  -21.294000  *    9.232000  *
    18       H(    18  C     )   -3.0280000  *  -20.619000  *   10.647000  *
    19       H(    19  C     )   -5.3360000  *  -24.460000  *   12.868000  *
    20       H(    20  C     )   -1.0550000  *  -25.376000  *   10.369000  *
    21       H(    21  C     )   -0.4800000  *  -24.314000  *   11.673000  *
    22       H(    22  C     )   -1.9920000  *  -27.528000  *   10.815000  *
    23       H(    23  C     )   -2.2010000  *  -28.125000  *   12.481000  *
    24       H(    24  C     )   -7.2790000  *  -20.767000  *   10.418000  *
    25       H(    25  C     )   -6.2510000  *  -21.352000  *    9.086000  *
    26       C(    26  C     )   -6.0470000  *  -25.441000  *   11.115000  *
    27       C(    27  C     )   -7.1620000  *  -25.909000  *   11.796000  *
    28       C(    28  C     )   -8.0780000  *  -26.723000  *   11.146000  *
    29       C(    29  C     )   -7.8780000  *  -27.066000  *    9.819000  *
    30       H(    30  C     )   -8.9460000  *  -27.089000  *   11.675000  *
    31       C(    31  C     )   -6.7610000  *  -26.595000  *    9.142000  *
    32       C(    32  C     )   -5.8530000  *  -25.780000  *    9.790000  *
    33       H(    33  C     )   -6.6050000  *  -26.863000  *    8.108000  *
    34       H(    34  C     )   -4.9850000  *  -25.414000  *    9.262000  *
    35       O(    35  O     )   -7.3560000  *  -25.572000  *   13.098000  *
    36       H(    36  O     )   -7.1190000  *  -24.657000  *   13.306000  *
    37       O(    37  O     )   -8.7740000  *  -27.864000  *    9.179000  *
    38       H(    38  O     )   -9.5120000  *  -28.149000  *    9.734000  *
    39       C(    39  C     )   -5.2660000  *  -20.290000  *   12.223000  *
    40       H(    40  C     )   -6.1390000  *  -20.837000  *   12.579000  *
    41       H(    41  C     )   -4.3670000  *  -20.702000  *   12.680000  *
    42       H(    42  C     )   -5.3620000  *  -19.238000  *   12.493000  *
    43       C(    43  C     )   -5.1710000  *  -19.032000  *   10.054000  *
    44       H(    44  C     )   -5.7600000  *  -19.060000  *    9.137000  *
    45       H(    45  C     )   -5.6080000  *  -18.310000  *   10.744000  *
    46       H(    46  C     )   -4.1480000  *  -18.739000  *    9.821000  *
    47       C(    47  C     )    0.2450000  *  -26.883000  *   12.248000  *
    48       H(    48  C     )    0.1470000  *  -27.967000  *   12.172000  *
    49       H(    49  C     )    0.7650000  *  -26.504000  *   11.368000  *
    50       H(    50  C     )    0.8140000  *  -26.632000  *   13.142000  *
    51       C(    51  C     )   -1.4440000  *  -25.821000  *   13.770000  *
    52       H(    52  C     )   -0.5780000  *  -26.024000  *   14.398000  *
    53       H(    53  C     )   -1.6660000  *  -24.754000  *   13.791000  *
    54       H(    54  C     )   -2.3040000  *  -26.377000  *   14.144000  *

           Empirical Formula: C23 H26 O5  =    54 atoms



              NET ATOMIC CHARGES AND DIPOLE CONTRIBUTIONS

  ATOM NO.   TYPE          CHARGE      No. of ELECS.   s-Pop       p-Pop       
    1          C           0.288224        3.7118     1.06302     2.64876
    2          C          -0.423816        4.4238     1.10759     3.31622
    3          C           0.443804        3.5562     1.10039     2.45581
    4          C          -0.493873        4.4939     1.11062     3.38325
    5          C           0.133785        3.8662     1.04891     2.81731
    6          C          -0.483882        4.4839     1.11037     3.37351
    7          C           0.436922        3.5631     1.10026     2.46282
    8          C          -0.422160        4.4222     1.10756     3.31460
    9          C           0.288861        3.7111     1.06275     2.64839
   10          C          -0.535732        4.5357     1.11896     3.41677
   11          C           0.664316        3.3357     1.07305     2.26263
   12          O          -0.619119        6.6191     1.84436     4.77476
   13          O          -0.343345        6.3433     1.78288     4.56046
   14          C           0.665373        3.3346     1.07351     2.26111
   15          O          -0.625544        6.6255     1.84526     4.78029
   16          C          -0.533353        4.5334     1.11829     3.41506
   17          H           0.207466        0.7925     0.79253
   18          H           0.198221        0.8018     0.80178
   19          H           0.132565        0.8674     0.86743
   20          H           0.206089        0.7939     0.79391
   21          H           0.197365        0.8026     0.80264
   22          H           0.206674        0.7933     0.79333
   23          H           0.200960        0.7990     0.79904
   24          H           0.201233        0.7988     0.79877
   25          H           0.206227        0.7938     0.79377
   26          C          -0.214261        4.2143     1.09253     3.12173
   27          C           0.442132        3.5579     1.05826     2.49961
   28          C          -0.523584        4.5236     1.10413     3.41946
   29          C           0.415159        3.5848     1.05939     2.52545
   30          H           0.202647        0.7974     0.79735
   31          C          -0.408675        4.4087     1.09553     3.31314
   32          C           0.031587        3.9684     1.09448     2.87394
   33          H           0.186139        0.8139     0.81386
   34          H           0.153456        0.8465     0.84654
   35          O          -0.546828        6.5468     1.77801     4.76881
   36          H           0.367611        0.6324     0.63239
   37          O          -0.525986        6.5260     1.78192     4.74406
   38          H           0.367188        0.6328     0.63281
   39          C          -0.558975        4.5590     1.09796     3.46101
   40          H           0.170244        0.8298     0.82976
   41          H           0.171143        0.8289     0.82886
   42          H           0.175674        0.8243     0.82433
   43          C          -0.547616        4.5476     1.09616     3.45146
   44          H           0.171971        0.8280     0.82803
   45          H           0.174337        0.8257     0.82566
   46          H           0.171789        0.8282     0.82821
   47          C          -0.549055        4.5491     1.09618     3.45288
   48          H           0.173820        0.8262     0.82618
   49          H           0.171144        0.8289     0.82886
   50          H           0.173812        0.8262     0.82619
   51          C          -0.559605        4.5596     1.09804     3.46156
   52          H           0.175205        0.8248     0.82479
   53          H           0.171316        0.8287     0.82868
   54          H           0.170953        0.8290     0.82905


          CARTESIAN COORDINATES 

    NO.       ATOM               X         Y         Z

     1         C                 -5.1700  -20.4190   10.7010
     2         C                 -3.9010  -21.1800   10.3150
     3         C                 -3.8950  -22.5450   10.9610
     4         C                 -5.0560  -23.1930   11.1770
     5         C                 -5.0520  -24.5570   11.8200
     6         C                 -3.6830  -25.1840   11.7330
     7         C                 -2.6040  -24.4160   11.4830
     8         C                 -1.2350  -25.0470   11.3930
     9         C                 -1.1450  -26.2510   12.3320
    10         C                 -2.2050  -27.2400   11.8440
    11         C                 -3.5520  -26.5730   11.9150
    12         O                 -4.5400  -27.2430   12.1310
    13         O                 -2.7190  -23.0890   11.3160
    14         C                 -6.2830  -22.6130   10.8060
    15         O                 -7.3160  -23.2210   11.0050
    16         C                 -6.3360  -21.2530   10.1670
    17         H                 -3.8650  -21.2940    9.2320
    18         H                 -3.0280  -20.6190   10.6470
    19         H                 -5.3360  -24.4600   12.8680
    20         H                 -1.0550  -25.3760   10.3690
    21         H                 -0.4800  -24.3140   11.6730
    22         H                 -1.9920  -27.5280   10.8150
    23         H                 -2.2010  -28.1250   12.4810
    24         H                 -7.2790  -20.7670   10.4180
    25         H                 -6.2510  -21.3520    9.0860
    26         C                 -6.0470  -25.4410   11.1150
    27         C                 -7.1620  -25.9090   11.7960
    28         C                 -8.0780  -26.7230   11.1460
    29         C                 -7.8780  -27.0660    9.8190
    30         H                 -8.9460  -27.0890   11.6750
    31         C                 -6.7610  -26.5950    9.1420
    32         C                 -5.8530  -25.7800    9.7900
    33         H                 -6.6050  -26.8630    8.1080
    34         H                 -4.9850  -25.4140    9.2620
    35         O                 -7.3560  -25.5720   13.0980
    36         H                 -7.1190  -24.6570   13.3060
    37         O                 -8.7740  -27.8640    9.1790
    38         H                 -9.5120  -28.1490    9.7340
    39         C                 -5.2660  -20.2900   12.2230
    40         H                 -6.1390  -20.8370   12.5790
    41         H                 -4.3670  -20.7020   12.6800
    42         H                 -5.3620  -19.2380   12.4930
    43         C                 -5.1710  -19.0320   10.0540
    44         H                 -5.7600  -19.0600    9.1370
    45         H                 -5.6080  -18.3100   10.7440
    46         H                 -4.1480  -18.7390    9.8210
    47         C                  0.2450  -26.8830   12.2480
    48         H                  0.1470  -27.9670   12.1720
    49         H                  0.7650  -26.5040   11.3680
    50         H                  0.8140  -26.6320   13.1420
    51         C                 -1.4440  -25.8210   13.7700
    52         H                 -0.5780  -26.0240   14.3980
    53         H                 -1.6660  -24.7540   13.7910
    54         H                 -2.3040  -26.3770   14.1440


          ATOMIC ORBITAL ELECTRON POPULATIONS

   1.06302   0.85030   0.89393   0.90453   1.10759   1.15002   1.00932   1.15688
   1.10039   0.78557   0.88392   0.78632   1.11062   1.04512   1.09285   1.24529
   1.04891   0.90051   0.87701   1.03979   1.11037   1.04339   1.06820   1.26193
   1.10026   0.94451   0.73816   0.78015   1.10756   1.03027   1.11332   1.17102
   1.06275   0.90033   0.86106   0.88699   1.11896   1.07023   1.14494   1.20160
   1.07305   0.82299   0.83551   0.60414   1.84436   1.52308   1.72893   1.52275
   1.78288   1.46854   1.34651   1.74542   1.07351   0.81519   0.80238   0.64355
   1.84526   1.50087   1.69450   1.58491   1.11829   1.15982   1.08046   1.17478
   0.79253   0.80178   0.86743   0.79391   0.80264   0.79333   0.79904   0.79877
   0.79377   1.09253   1.02346   1.08553   1.01274   1.05826   0.89148   0.86695
   0.74118   1.10413   1.15016   1.21109   1.05821   1.05939   0.83402   0.81717
   0.87426   0.79735   1.09553   1.04754   1.14440   1.12120   1.09448   0.99689
   0.91258   0.96447   0.81386   0.84654   1.77801   1.88507   1.48496   1.39878
   0.63239   1.78192   1.47256   1.69123   1.58027   0.63281   1.09796   1.19238
   1.19950   1.06913   0.82976   0.82886   0.82433   1.09616   1.19466   1.08313
   1.17367   0.82803   0.82566   0.82821   1.09618   1.08311   1.17399   1.19577
   0.82618   0.82886   0.82619   1.09804   1.19355   1.18389   1.08412   0.82479
   0.82868   0.82905

           MULLIKEN POPULATION ANALYSIS



        MULLIKEN POPULATIONS AND CHARGES

      NO.  ATOM   POPULATION      CHARGE
        1    C     3.682466      0.317534
        2    C     4.543737     -0.543737
        3    C     3.532397      0.467603
        4    C     4.544011     -0.544011
        5    C     3.862207      0.137793
        6    C     4.532765     -0.532765
        7    C     3.539980      0.460020
        8    C     4.541463     -0.541463
        9    C     3.681672      0.318328
       10    C     4.667448     -0.667448
       11    C     3.282458      0.717542
       12    O     6.643934     -0.643934
       13    O     6.390448     -0.390448
       14    C     3.281652      0.718348
       15    O     6.650462     -0.650462
       16    C     4.664966     -0.664966
       17    H     0.735215      0.264785
       18    H     0.744790      0.255210
       19    H     0.824976      0.175024
       20    H     0.737234      0.262766
       21    H     0.745553      0.254447
       22    H     0.736902      0.263098
       23    H     0.742071      0.257929
       24    H     0.741520      0.258480
       25    H     0.737544      0.262456
       26    C     4.235325     -0.235325
       27    C     3.527731      0.472269
       28    C     4.603202     -0.603202
       29    C     3.560146      0.439854
       30    H     0.734561      0.265439
       31    C     4.476850     -0.476850
       32    C     3.996673      0.003327
       33    H     0.754778      0.245222
       34    H     0.797060      0.202940
       35    O     6.598586     -0.598586
       36    H     0.597907      0.402093
       37    O     6.578399     -0.578399
       38    H     0.598036      0.401964
       39    C     4.705212     -0.705212
       40    H     0.782258      0.217742
       41    H     0.780926      0.219074
       42    H     0.775750      0.224250
       43    C     4.694242     -0.694242
       44    H     0.779759      0.220241
       45    H     0.777557      0.222443
       46    H     0.780165      0.219835
       47    C     4.695749     -0.695749
       48    H     0.777912      0.222088
       49    H     0.780983      0.219017
       50    H     0.778015      0.221985
       51    C     4.705950     -0.705950
       52    H     0.776184      0.223816
       53    H     0.780834      0.219166
       54    H     0.781376      0.218624



 TOTAL CPU TIME:             0.59 SECONDS

 == MOPAC DONE ==
 *******************************************************************************
 ** Site#:  958            For non-commercial use only         Version 9.015L **
 *******************************************************************************
 ** Cite this work as: MOPAC2009, James J. P. Stewart, Stewart Computational  **
 ** Chemistry, Version 9.015L web: HTTP://OpenMOPAC.net                       **
 *******************************************************************************
 **                                                                           **
 **                                MOPAC2009                                  **
 **                                                                           **
 *******************************************************************************

                            PM6 CALCULATION RESULTS


 *******************************************************************************
 *  CALCULATION DONE:                                Thu Sep  8 14:10:39 2011  *
 *  PM6      - The PM6 Hamiltonian to be used
 *  GEO-OK   - OVERRIDE INTERATOMIC DISTANCE CHECK
 *  MOZYME   - USE LOCALIZED M.O.s IN SOLVING THE SCF EQUATIONS
 *
 *
 *
 *                 CHARGE ON SYSTEM =     0
 *
 *
 *
 *  EPS= 78.400
 *  RSOLV=  1.300
 *  OLDGEO   - PREVIOUS GEOMETRY TO BE USED
 *  T=       - A TIME OF 172800.0 SECONDS REQUESTED
 *  DUMP=N   - RESTART FILE WRITTEN EVERY  4320.000 SECONDS
 *  RELSCF   - DEFAULT SCF CRITERION MULTIPLIED BY   0.100    
 *             (DEFAULT SCFCRT= 0.00010)
 *  THERMO   - THERMODYNAMIC QUANTITIES TO BE CALCULATED
 *******************************************************************************
 PM6 DUMP=4320 MOZYME RELSCF=0.1 THERMO EPS=78.40 RSOLV=1.30 +
 OLDGEO GEO-OK CHARGE=0
 SJ000002349-1_T001S001I001C08_001: Free energy calculation

   ATOM           CHEMICAL             X               Y              Z
  NUMBER           SYMBOL         (ANGSTROMS)     (ANGSTROMS)    (ANGSTROMS)
 
     1       C(     1  C     )   -5.1700000  *  -20.419000  *   10.701000  *
     2       C(     2  C     )   -3.9010000  *  -21.180000  *   10.315000  *
     3       C(     3  C     )   -3.8950000  *  -22.545000  *   10.961000  *
     4       C(     4  C     )   -5.0560000  *  -23.193000  *   11.177000  *
     5       C(     5  C     )   -5.0520000  *  -24.557000  *   11.820000  *
     6       C(     6  C     )   -3.6830000  *  -25.184000  *   11.733000  *
     7       C(     7  C     )   -2.6040000  *  -24.416000  *   11.483000  *
     8       C(     8  C     )   -1.2350000  *  -25.047000  *   11.393000  *
     9       C(     9  C     )   -1.1450000  *  -26.251000  *   12.332000  *
    10       C(    10  C     )   -2.2050000  *  -27.240000  *   11.844000  *
    11       C(    11  C     )   -3.5520000  *  -26.573000  *   11.915000  *
    12       O(    12  O     )   -4.5400000  *  -27.243000  *   12.131000  *
    13       O(    13  O     )   -2.7190000  *  -23.089000  *   11.316000  *
    14       C(    14  C     )   -6.2830000  *  -22.613000  *   10.806000  *
    15       O(    15  O     )   -7.3160000  *  -23.221000  *   11.005000  *
    16       C(    16  C     )   -6.3360000  *  -21.253000  *   10.167000  *
    17       H(    17  C     )   -3.8650000  *  -21.294000  *    9.232000  *
    18       H(    18  C     )   -3.0280000  *  -20.619000  *   10.647000  *
    19       H(    19  C     )   -5.3360000  *  -24.460000  *   12.868000  *
    20       H(    20  C     )   -1.0550000  *  -25.376000  *   10.369000  *
    21       H(    21  C     )   -0.4800000  *  -24.314000  *   11.673000  *
    22       H(    22  C     )   -1.9920000  *  -27.528000  *   10.815000  *
    23       H(    23  C     )   -2.2010000  *  -28.125000  *   12.481000  *
    24       H(    24  C     )   -7.2790000  *  -20.767000  *   10.418000  *
    25       H(    25  C     )   -6.2510000  *  -21.352000  *    9.086000  *
    26       C(    26  C     )   -6.0470000  *  -25.441000  *   11.115000  *
    27       C(    27  C     )   -7.1620000  *  -25.909000  *   11.796000  *
    28       C(    28  C     )   -8.0780000  *  -26.723000  *   11.146000  *
    29       C(    29  C     )   -7.8780000  *  -27.066000  *    9.819000  *
    30       H(    30  C     )   -8.9460000  *  -27.089000  *   11.675000  *
    31       C(    31  C     )   -6.7610000  *  -26.595000  *    9.142000  *
    32       C(    32  C     )   -5.8530000  *  -25.780000  *    9.790000  *
    33       H(    33  C     )   -6.6050000  *  -26.863000  *    8.108000  *
    34       H(    34  C     )   -4.9850000  *  -25.414000  *    9.262000  *
    35       O(    35  O     )   -7.3560000  *  -25.572000  *   13.098000  *
    36       H(    36  O     )   -7.1190000  *  -24.657000  *   13.306000  *
    37       O(    37  O     )   -8.7740000  *  -27.864000  *    9.179000  *
    38       H(    38  O     )   -9.5120000  *  -28.149000  *    9.734000  *
    39       C(    39  C     )   -5.2660000  *  -20.290000  *   12.223000  *
    40       H(    40  C     )   -6.1390000  *  -20.837000  *   12.579000  *
    41       H(    41  C     )   -4.3670000  *  -20.702000  *   12.680000  *
    42       H(    42  C     )   -5.3620000  *  -19.238000  *   12.493000  *
    43       C(    43  C     )   -5.1710000  *  -19.032000  *   10.054000  *
    44       H(    44  C     )   -5.7600000  *  -19.060000  *    9.137000  *
    45       H(    45  C     )   -5.6080000  *  -18.310000  *   10.744000  *
    46       H(    46  C     )   -4.1480000  *  -18.739000  *    9.821000  *
    47       C(    47  C     )    0.2450000  *  -26.883000  *   12.248000  *
    48       H(    48  C     )    0.1470000  *  -27.967000  *   12.172000  *
    49       H(    49  C     )    0.7650000  *  -26.504000  *   11.368000  *
    50       H(    50  C     )    0.8140000  *  -26.632000  *   13.142000  *
    51       C(    51  C     )   -1.4440000  *  -25.821000  *   13.770000  *
    52       H(    52  C     )   -0.5780000  *  -26.024000  *   14.398000  *
    53       H(    53  C     )   -1.6660000  *  -24.754000  *   13.791000  *
    54       H(    54  C     )   -2.3040000  *  -26.377000  *   14.144000  *
 


          CARTESIAN COORDINATES 

    NO.       ATOM         X         Y         Z

     1         C       -5.1700  -20.4190   10.7010
     2         C       -3.9010  -21.1800   10.3150
     3         C       -3.8950  -22.5450   10.9610
     4         C       -5.0560  -23.1930   11.1770
     5         C       -5.0520  -24.5570   11.8200
     6         C       -3.6830  -25.1840   11.7330
     7         C       -2.6040  -24.4160   11.4830
     8         C       -1.2350  -25.0470   11.3930
     9         C       -1.1450  -26.2510   12.3320
    10         C       -2.2050  -27.2400   11.8440
    11         C       -3.5520  -26.5730   11.9150
    12         O       -4.5400  -27.2430   12.1310
    13         O       -2.7190  -23.0890   11.3160
    14         C       -6.2830  -22.6130   10.8060
    15         O       -7.3160  -23.2210   11.0050
    16         C       -6.3360  -21.2530   10.1670
    17         H       -3.8650  -21.2940    9.2320
    18         H       -3.0280  -20.6190   10.6470
    19         H       -5.3360  -24.4600   12.8680
    20         H       -1.0550  -25.3760   10.3690
    21         H       -0.4800  -24.3140   11.6730
    22         H       -1.9920  -27.5280   10.8150
    23         H       -2.2010  -28.1250   12.4810
    24         H       -7.2790  -20.7670   10.4180
    25         H       -6.2510  -21.3520    9.0860
    26         C       -6.0470  -25.4410   11.1150
    27         C       -7.1620  -25.9090   11.7960
    28         C       -8.0780  -26.7230   11.1460
    29         C       -7.8780  -27.0660    9.8190
    30         H       -8.9460  -27.0890   11.6750
    31         C       -6.7610  -26.5950    9.1420
    32         C       -5.8530  -25.7800    9.7900
    33         H       -6.6050  -26.8630    8.1080
    34         H       -4.9850  -25.4140    9.2620
    35         O       -7.3560  -25.5720   13.0980
    36         H       -7.1190  -24.6570   13.3060
    37         O       -8.7740  -27.8640    9.1790
    38         H       -9.5120  -28.1490    9.7340
    39         C       -5.2660  -20.2900   12.2230
    40         H       -6.1390  -20.8370   12.5790
    41         H       -4.3670  -20.7020   12.6800
    42         H       -5.3620  -19.2380   12.4930
    43         C       -5.1710  -19.0320   10.0540
    44         H       -5.7600  -19.0600    9.1370
    45         H       -5.6080  -18.3100   10.7440
    46         H       -4.1480  -18.7390    9.8210
    47         C        0.2450  -26.8830   12.2480
    48         H        0.1470  -27.9670   12.1720
    49         H        0.7650  -26.5040   11.3680
    50         H        0.8140  -26.6320   13.1420
    51         C       -1.4440  -25.8210   13.7700
    52         H       -0.5780  -26.0240   14.3980
    53         H       -1.6660  -24.7540   13.7910
    54         H       -2.3040  -26.3770   14.1440

 General Reference for PM6:
 "Optimization of Parameters for Semiempirical Methods V: Modification of NDDO Approximations
 and Application to 70 Elements", J. J. P. Stewart, J. Mol. Mod., 13, 1173-1213 (2007)
 URL: http://www.springerlink.com/content/ar33482301010477/fulltext.pdf

           Empirical Formula: C23 H26 O5  =    54 atoms



      MOLECULAR POINT GROUP   :   C1  
 
   NUMBER AND TYPES OF BONDS IDENTIFIED
 
         SIGMA BONDS               57
         LONE PAIRS                10
         NORMAL PI BONDS            6
         AROMATIC RING PI BONDS     1
 
  SCF CRITERION =    0.1000E-02


          HEAT OF FORMATION =    -184.889600 KCALS/MOLE


          INTERNAL COORDINATE DERIVATIVES

   NUMBER  ATOM       BOND         ANGLE      DIHEDRAL

     1       C
     2       C      9.461406
     3       C      7.757756     2.297113
     4       C    -27.688918   -20.308874    18.558126
     5       C     38.153083    18.430956   -21.289697
     6       C    -46.106508   -13.964715    23.696797
     7       C     -6.623023     4.260768   -13.439097
     8       C     31.809572    44.459696    11.979862
     9       C    -32.646080   -35.114506   -10.602123
    10       C     30.548649    22.553963     9.137802
    11       C     -8.398785    -6.029819     4.931167
    12       O     11.790924     1.764363     4.795854
    13       O    -23.565527   -39.531749   -16.619243
    14       C      3.692530   -38.511856   -13.901123
    15       O    -32.911178    55.684009    36.664105
    16       C     39.870394     5.048429   -28.383904
    17       H     30.667003   -17.256419   -16.852896
    18       H     -2.973551    -9.416327     8.069581
    19       H    -10.829007     9.583019    -9.608423
    20       H     -9.188958    11.820790     8.892655
    21       H      9.561925    -9.671710    17.210629
    22       H     -7.106732    11.714550    -9.828917
    23       H     -6.741984    13.785245     8.729648
    24       H     -8.844011    -1.217646   -12.591596
    25       H     -6.932830   -12.157519    -4.156768
    26       C     12.655034     2.252394    -7.255748
    27       C      0.750108     5.898834   -14.805546
    28       C     -8.370450    16.117166    17.100418
    29       C      1.704693     2.078060    -8.885721
    30       H     22.185736   -27.532903     8.839474
    31       C      0.926791    -2.164217     6.332982
    32       C      5.319768    -5.788739     0.238779
    33       H    -10.701133     6.600594   -29.575499
    34       H     -7.171586     6.165990    -4.990680
    35       O     -3.364902     2.422277    -6.530801
    36       H     -5.569327     7.262414     0.495259
    37       O     12.994264   -30.201928    -3.425168
    38       H      1.724874    12.510304    10.872486
    39       C    -15.616444    15.183088   -14.729720
    40       H     11.349840   -13.680947     0.115432
    41       H     -1.011512     2.215077    -1.972505
    42       H      5.035871    -5.189162     9.078535
    43       C      3.407161    -4.481696     9.936170
    44       H      3.996436    -3.548666     7.821775
    45       H     -5.591725    -6.181399    -3.399161
    46       H      2.565538     9.083953    -1.384475
    47       C      4.784102     7.321794     0.441761
    48       H      2.071246     9.155233     1.727778
    49       H      5.348908     2.923340    -5.503833
    50       H     -8.551896    -1.430280     2.124617
    51       C     -9.914018     0.655737     1.027115
    52       H     -8.299315     0.273461     4.468355
    53       H     -1.257861     0.527174    -2.718979
    54       H      3.265176    -3.702731     8.517892


          GRADIENT NORM = 194.83205



 ** GRADIENT IS TOO LARGE TO ALLOW FORCE MATRIX TO BE CALCULATED, (LIMIT=10) **



 EITHER ADD 'LET' OR REDUCE GRADIENT
 USING 'TS' OR OTHER GEOMETRY OPTIMIZER



 TOTAL CPU TIME:             1.32 SECONDS

 == MOPAC DONE ==
