 *******************************************************************************
 ** Site#:  958            For non-commercial use only         Version 9.015L **
 *******************************************************************************
 ** Cite this work as: MOPAC2009, James J. P. Stewart, Stewart Computational  **
 ** Chemistry, Version 9.015L web: HTTP://OpenMOPAC.net                       **
 *******************************************************************************
 **                                                                           **
 **                                MOPAC2009                                  **
 **                                                                           **
 *******************************************************************************

                            PM6 CALCULATION RESULTS


 *******************************************************************************
 *  CALCULATION DONE:                                Tue Sep  6 21:22:12 2011  *
 *  PM6      - The PM6 Hamiltonian to be used
 *  PDBOUT   - PRINT GEOMETY IN PDB FORMAT
 *  MOZYME   - USE LOCALIZED M.O.s IN SOLVING THE SCF EQUATIONS
 *
 *
 *
 *                 CHARGE ON SYSTEM =     0
 *
 *
 *
 *  EPS= 78.400
 *  RSOLV=  1.300
 *  LET      - OVERRIDE SOME SAFETY CHECKS
 *  XYZ      - CARTESIAN COORDINATE SYSTEM TO BE USED
 *  LBFGS    - USE THE LBFGS GEOMETRY OPTIMIZER
 *  1SCF     - DO 1 SCF AND THEN STOP 
 *  T=       - A TIME OF  0.3E+08 SECONDS REQUESTED
 *  DUMP=N   - RESTART FILE WRITTEN EVERY  4320.000 SECONDS
 *  DDMIN=   - MINIMUM TRUST RADIUS  0.000 ANG/RAD
 *  GNORM=   - EXIT WHEN GRADIENT NORM DROPS BELOW .150    
 *  RELSCF   - DEFAULT SCF CRITERION MULTIPLIED BY   0.100    
 *             (DEFAULT SCFCRT= 0.00010)
 *  MULLIK   - THE MULLIKEN ANALYSIS TO BE PERFORMED
 *******************************************************************************
 PM6 T=31517920 DUMP=4320 XYZ EPS=78.40 RSOLV=1.30 MULLIK LBFGS MOZYME PDBOUT +
 CHARGE=-0 RELSCF=0.1 LET DDMIN=0.0 GNORM=0.15 1SCF
 SJ000001185-1_T001S001I001C01_004: Geometry optimization step

   ATOM   CHEMICAL          X               Y              Z
  NUMBER   SYMBOL      (ANGSTROMS)     (ANGSTROMS)    (ANGSTROMS)
 
     1       N         -1.0560000  *  -26.186000  *   11.869000  *
     2       C         -1.9030000  *  -27.232000  *   11.895000  *
     3       O         -1.4720000  *  -28.356000  *   12.075000  *
     4       C         -3.3470000  *  -27.024000  *   11.708000  *
     5       C         -4.2550000  *  -28.072000  *   11.728000  *
     6       C         -5.6110000  *  -27.824000  *   11.544000  *
     7       C         -6.0860000  *  -26.560000  *   11.343000  *
     8       C         -3.8210000  *  -25.709000  *   11.500000  *
     9       C         -5.1980000  *  -25.470000  *   11.316000  *
    10       C         -5.6390000  *  -24.150000  *   11.113000  *
    11       C         -4.7380000  *  -23.125000  *   11.095000  *
    12       C         -3.3780000  *  -23.346000  *   11.274000  *
    13       C         -2.9030000  *  -24.634000  *   11.478000  *
    14       C         -1.4750000  *  -24.921000  *   11.678000  *
    15       O         -0.6670000  *  -24.012000  *   11.664000  *
    16       H         -3.9080000  *  -29.082000  *   11.884000  *
    17       H         -6.3040000  *  -28.652000  *   11.562000  *
    18       H         -6.6900000  *  -23.949000  *   10.971000  *
    19       H         -5.0920000  *  -22.117000  *   10.937000  *
    20       H         -2.6890000  *  -22.515000  *   11.255000  *
    21       C          0.3130000  *  -26.423000  *   12.052000  *
    22       C          1.1010000  *  -26.807000  *   10.976000  *
    23       C          2.4550000  *  -27.040000  *   11.161000  *
    24       H          0.6610000  *  -26.923000  *    9.997000  *
    25       C          3.0180000  *  -26.895000  *   12.422000  *
    26       C          2.2320000  *  -26.507000  *   13.490000  *
    27       H          4.0730000  *  -27.076000  *   12.566000  *
    28       C          0.8830000  *  -26.274000  *   13.309000  *
    29       H          2.6730000  *  -26.391000  *   14.469000  *
    30       H          0.2700000  *  -25.976000  *   14.148000  *
    31       O          3.2290000  *  -27.416000  *   10.109000  *
    32       H          3.4770000  *  -26.689000  *    9.523000  *
    33       N         -7.5370000  *  -26.338000  *   11.153000  *
    34       O         -8.2040000  *  -25.865000  *   12.056000  *
    35       O         -8.0630000  *  -26.627000  *   10.093000  *
 


          CARTESIAN COORDINATES 

    NO.       ATOM         X         Y         Z

     1         N       -1.0560  -26.1860   11.8690
     2         C       -1.9030  -27.2320   11.8950
     3         O       -1.4720  -28.3560   12.0750
     4         C       -3.3470  -27.0240   11.7080
     5         C       -4.2550  -28.0720   11.7280
     6         C       -5.6110  -27.8240   11.5440
     7         C       -6.0860  -26.5600   11.3430
     8         C       -3.8210  -25.7090   11.5000
     9         C       -5.1980  -25.4700   11.3160
    10         C       -5.6390  -24.1500   11.1130
    11         C       -4.7380  -23.1250   11.0950
    12         C       -3.3780  -23.3460   11.2740
    13         C       -2.9030  -24.6340   11.4780
    14         C       -1.4750  -24.9210   11.6780
    15         O       -0.6670  -24.0120   11.6640
    16         H       -3.9080  -29.0820   11.8840
    17         H       -6.3040  -28.6520   11.5620
    18         H       -6.6900  -23.9490   10.9710
    19         H       -5.0920  -22.1170   10.9370
    20         H       -2.6890  -22.5150   11.2550
    21         C        0.3130  -26.4230   12.0520
    22         C        1.1010  -26.8070   10.9760
    23         C        2.4550  -27.0400   11.1610
    24         H        0.6610  -26.9230    9.9970
    25         C        3.0180  -26.8950   12.4220
    26         C        2.2320  -26.5070   13.4900
    27         H        4.0730  -27.0760   12.5660
    28         C        0.8830  -26.2740   13.3090
    29         H        2.6730  -26.3910   14.4690
    30         H        0.2700  -25.9760   14.1480
    31         O        3.2290  -27.4160   10.1090
    32         H        3.4770  -26.6890    9.5230
    33         N       -7.5370  -26.3380   11.1530
    34         O       -8.2040  -25.8650   12.0560
    35         O       -8.0630  -26.6270   10.0930

 General Reference for PM6:
 "Optimization of Parameters for Semiempirical Methods V: Modification of NDDO Approximations
 and Application to 70 Elements", J. J. P. Stewart, J. Mol. Mod., 13, 1173-1213 (2007)
 URL: http://www.springerlink.com/content/ar33482301010477/fulltext.pdf

           Empirical Formula: C18 H10 N2 O5  =    35 atoms



      MOLECULAR POINT GROUP   :   C1  
 
   NUMBER AND TYPES OF BONDS IDENTIFIED
 
         SIGMA BONDS               39
         LONE PAIRS                12
         NORMAL PI BONDS            4
         AROMATIC RING PI BONDS     6
 

                  Ramachandran Angles
              Residue    phi    psi  omega

  
  SCF CRITERION =    0.1000E-02

 -------------------------------------------------------------------------------
 PM6 T=31517920 DUMP=4320 XYZ EPS=78.40 RSOLV=1.30 MULLIK LBFGS MOZYME PDBOUT +
 CHARGE=-0 RELSCF=0.1 LET DDMIN=0.0 GNORM=0.15 1SCF
 SJ000001185-1_T001S001I001C01_004: Geometry optimization step



     1SCF WAS SPECIFIED, SO BFGS WAS NOT USED                 
     SCF FIELD WAS ACHIEVED                                   


                               PM6     CALCULATION
                                                       MOPAC2009 (Version: 9.015L)
                                                       Tue Sep  6 21:22:13 2011




          FINAL HEAT OF FORMATION =        -44.90893 KCAL =    -187.89897 KJ
          VAN DER WAALS AREA      =        313.17 SQUARE ANGSTROMS


          TOTAL ENERGY            =      -4151.92076 EV
          ELECTRONIC ENERGY       =     -29685.93835 EV
          CORE-CORE REPULSION     =      25534.01759 EV
          DIELECTRIC ENERGY       =         -1.09552 EV
          COSMO AREA              =        313.17 SQUARE ANGSTROMS
          COSMO VOLUME            =        352.58 CUBIC ANGSTROMS

          NO. OF FILLED LEVELS    =         61
          MOLECULAR WEIGHT        =        334.287

          MOLECULAR DIMENSIONS (Angstroms)

            Atom       Atom       Distance
            H    27    O    34    12.34712
            H    16    H    19     6.87035
            H    29    H    32     4.96358


          SCF CALCULATIONS        =          2
          COMPUTATION TIME        =          0.523 SECONDS




   ATOM           CHEMICAL             X               Y              Z
  NUMBER           SYMBOL         (ANGSTROMS)     (ANGSTROMS)    (ANGSTROMS)
 
     1       N(     1  N     )   -1.0560000  *  -26.186000  *   11.869000  *
     2       C(     2  C     )   -1.9030000  *  -27.232000  *   11.895000  *
     3       O(     3  O     )   -1.4720000  *  -28.356000  *   12.075000  *
     4       C(     4  C     )   -3.3470000  *  -27.024000  *   11.708000  *
     5       C(     5  C     )   -4.2550000  *  -28.072000  *   11.728000  *
     6       C(     6  C     )   -5.6110000  *  -27.824000  *   11.544000  *
     7       C(     7  C     )   -6.0860000  *  -26.560000  *   11.343000  *
     8       C(     8  C     )   -3.8210000  *  -25.709000  *   11.500000  *
     9       C(     9  C     )   -5.1980000  *  -25.470000  *   11.316000  *
    10       C(    10  C     )   -5.6390000  *  -24.150000  *   11.113000  *
    11       C(    11  C     )   -4.7380000  *  -23.125000  *   11.095000  *
    12       C(    12  C     )   -3.3780000  *  -23.346000  *   11.274000  *
    13       C(    13  C     )   -2.9030000  *  -24.634000  *   11.478000  *
    14       C(    14  C     )   -1.4750000  *  -24.921000  *   11.678000  *
    15       O(    15  O     )   -0.6670000  *  -24.012000  *   11.664000  *
    16       H(    16  C     )   -3.9080000  *  -29.082000  *   11.884000  *
    17       H(    17  C     )   -6.3040000  *  -28.652000  *   11.562000  *
    18       H(    18  C     )   -6.6900000  *  -23.949000  *   10.971000  *
    19       H(    19  C     )   -5.0920000  *  -22.117000  *   10.937000  *
    20       H(    20  C     )   -2.6890000  *  -22.515000  *   11.255000  *
    21       C(    21  C     )    0.3130000  *  -26.423000  *   12.052000  *
    22       C(    22  C     )    1.1010000  *  -26.807000  *   10.976000  *
    23       C(    23  C     )    2.4550000  *  -27.040000  *   11.161000  *
    24       H(    24  C     )    0.6610000  *  -26.923000  *    9.997000  *
    25       C(    25  C     )    3.0180000  *  -26.895000  *   12.422000  *
    26       C(    26  C     )    2.2320000  *  -26.507000  *   13.490000  *
    27       H(    27  C     )    4.0730000  *  -27.076000  *   12.566000  *
    28       C(    28  C     )    0.8830000  *  -26.274000  *   13.309000  *
    29       H(    29  C     )    2.6730000  *  -26.391000  *   14.469000  *
    30       H(    30  C     )    0.2700000  *  -25.976000  *   14.148000  *
    31       O(    31  O     )    3.2290000  *  -27.416000  *   10.109000  *
    32       H(    32  O     )    3.4770000  *  -26.689000  *    9.523000  *
    33       N(    33  N     )   -7.5370000  *  -26.338000  *   11.153000  *
    34       O(    34  O     )   -8.2040000  *  -25.865000  *   12.056000  *
    35       O(    35  O     )   -8.0630000  *  -26.627000  *   10.093000  *

           Empirical Formula: C18 H10 N2 O5  =    35 atoms



              NET ATOMIC CHARGES AND DIPOLE CONTRIBUTIONS

  ATOM NO.   TYPE          CHARGE      No. of ELECS.   s-Pop       p-Pop       
    1          N          -0.374460        5.3745     1.47785     3.89661
    2          C           0.642648        3.3574     1.05014     2.30721
    3          O          -0.576852        6.5769     1.84965     4.72720
    4          C          -0.230516        4.2305     1.10408     3.12644
    5          C           0.032163        3.9678     1.10719     2.86065
    6          C          -0.136244        4.1362     1.10263     3.03361
    7          C          -0.072195        4.0722     1.10645     2.96574
    8          C           0.144749        3.8553     1.07049     2.78476
    9          C          -0.056202        4.0562     1.07105     2.98515
   10          C          -0.055917        4.0559     1.10786     2.94806
   11          C          -0.201012        4.2010     1.10292     3.09809
   12          C           0.068109        3.9319     1.11020     2.82169
   13          C          -0.287133        4.2871     1.09843     3.18870
   14          C           0.649778        3.3502     1.05011     2.30011
   15          O          -0.584493        6.5845     1.84865     4.73585
   16          H           0.191708        0.8083     0.80829
   17          H           0.204764        0.7952     0.79524
   18          H           0.176781        0.8232     0.82322
   19          H           0.192590        0.8074     0.80741
   20          H           0.179219        0.8208     0.82078
   21          C           0.219888        3.7801     1.05089     2.72923
   22          C          -0.336761        4.3368     1.11393     3.22283
   23          C           0.344141        3.6559     1.05974     2.59612
   24          H           0.201328        0.7987     0.79867
   25          C          -0.290080        4.2901     1.11073     3.17935
   26          C          -0.035906        4.0359     1.09849     2.93741
   27          H           0.191058        0.8089     0.80894
   28          C          -0.251808        4.2518     1.10692     3.14489
   29          H           0.168223        0.8318     0.83178
   30          H           0.187561        0.8124     0.81244
   31          O          -0.561073        6.5611     1.77250     4.78857
   32          H           0.377598        0.6224     0.62240
   33          N           0.838972        4.1610     1.30578     2.85524
   34          O          -0.483174        6.4832     1.91757     4.56560
   35          O          -0.477451        6.4775     1.91769     4.55976


          CARTESIAN COORDINATES 

    NO.       ATOM               X         Y         Z

     1         N                 -1.0560  -26.1860   11.8690
     2         C                 -1.9030  -27.2320   11.8950
     3         O                 -1.4720  -28.3560   12.0750
     4         C                 -3.3470  -27.0240   11.7080
     5         C                 -4.2550  -28.0720   11.7280
     6         C                 -5.6110  -27.8240   11.5440
     7         C                 -6.0860  -26.5600   11.3430
     8         C                 -3.8210  -25.7090   11.5000
     9         C                 -5.1980  -25.4700   11.3160
    10         C                 -5.6390  -24.1500   11.1130
    11         C                 -4.7380  -23.1250   11.0950
    12         C                 -3.3780  -23.3460   11.2740
    13         C                 -2.9030  -24.6340   11.4780
    14         C                 -1.4750  -24.9210   11.6780
    15         O                 -0.6670  -24.0120   11.6640
    16         H                 -3.9080  -29.0820   11.8840
    17         H                 -6.3040  -28.6520   11.5620
    18         H                 -6.6900  -23.9490   10.9710
    19         H                 -5.0920  -22.1170   10.9370
    20         H                 -2.6890  -22.5150   11.2550
    21         C                  0.3130  -26.4230   12.0520
    22         C                  1.1010  -26.8070   10.9760
    23         C                  2.4550  -27.0400   11.1610
    24         H                  0.6610  -26.9230    9.9970
    25         C                  3.0180  -26.8950   12.4220
    26         C                  2.2320  -26.5070   13.4900
    27         H                  4.0730  -27.0760   12.5660
    28         C                  0.8830  -26.2740   13.3090
    29         H                  2.6730  -26.3910   14.4690
    30         H                  0.2700  -25.9760   14.1480
    31         O                  3.2290  -27.4160   10.1090
    32         H                  3.4770  -26.6890    9.5230
    33         N                 -7.5370  -26.3380   11.1530
    34         O                 -8.2040  -25.8650   12.0560
    35         O                 -8.0630  -26.6270   10.0930


          ATOMIC ORBITAL ELECTRON POPULATIONS

   1.47785   1.14139   1.14759   1.60763   1.05014   0.84518   0.77992   0.68211
   1.84965   1.79842   1.37563   1.55315   1.10408   1.00191   1.01118   1.11335
   1.10719   0.94621   1.06013   0.85431   1.10263   1.04018   1.02486   0.96857
   1.10645   0.88374   1.01235   1.06966   1.07049   0.94108   0.92916   0.91452
   1.07105   0.96778   0.96220   1.05517   1.10786   1.08275   0.95504   0.91027
   1.10292   0.98953   1.09182   1.01674   1.11020   1.00426   1.00413   0.81331
   1.09843   0.99247   1.01968   1.17655   1.05011   0.85435   0.76827   0.67749
   1.84865   1.62643   1.53908   1.57033   0.80829   0.79524   0.82322   0.80741
   0.82078   1.05089   0.79901   0.97670   0.95352   1.11393   1.02908   1.09331
   1.10045   1.05974   0.86782   0.89640   0.83190   0.79867   1.11073   1.11120
   1.06698   1.00117   1.09849   0.96607   0.92282   1.04853   0.80894   1.10692
   1.03521   1.06111   1.04857   0.83178   0.81244   1.77250   1.75234   1.54633
   1.48991   0.62240   1.30578   0.99840   0.92226   0.93458   1.91757   1.65261
   1.48537   1.42762   1.91769   1.74401   1.55718   1.25857

           MULLIKEN POPULATION ANALYSIS



        MULLIKEN POPULATIONS AND CHARGES

      NO.  ATOM   POPULATION      CHARGE
        1    N     5.547030     -0.547030
        2    C     3.274241      0.725759
        3    O     6.595431     -0.595431
        4    C     4.261562     -0.261562
        5    C     4.004834     -0.004834
        6    C     4.189614     -0.189614
        7    C     4.069849     -0.069849
        8    C     3.830946      0.169054
        9    C     4.060609     -0.060609
       10    C     4.101571     -0.101571
       11    C     4.264976     -0.264976
       12    C     3.966680      0.033320
       13    C     4.317904     -0.317904
       14    C     3.266306      0.733694
       15    O     6.603629     -0.603629
       16    H     0.747947      0.252053
       17    H     0.730859      0.269141
       18    H     0.766530      0.233470
       19    H     0.746585      0.253415
       20    H     0.763561      0.236439
       21    C     3.735948      0.264052
       22    C     4.402595     -0.402595
       23    C     3.637079      0.362921
       24    H     0.735466      0.264534
       25    C     4.356194     -0.356194
       26    C     4.077601     -0.077601
       27    H     0.748522      0.251478
       28    C     4.310908     -0.310908
       29    H     0.777897      0.222103
       30    H     0.753129      0.246871
       31    O     6.611273     -0.611273
       32    H     0.587289      0.412711
       33    N     4.214195      0.785805
       34    O     6.473566     -0.473566
       35    O     6.467678     -0.467678



 TOTAL CPU TIME:             0.54 SECONDS

 == MOPAC DONE ==
 *******************************************************************************
 ** Site#:  958            For non-commercial use only         Version 9.015L **
 *******************************************************************************
 ** Cite this work as: MOPAC2009, James J. P. Stewart, Stewart Computational  **
 ** Chemistry, Version 9.015L web: HTTP://OpenMOPAC.net                       **
 *******************************************************************************
 **                                                                           **
 **                                MOPAC2009                                  **
 **                                                                           **
 *******************************************************************************

                            PM6 CALCULATION RESULTS


 *******************************************************************************
 *  CALCULATION DONE:                                Tue Sep  6 21:22:13 2011  *
 *  PM6      - The PM6 Hamiltonian to be used
 *  GEO-OK   - OVERRIDE INTERATOMIC DISTANCE CHECK
 *  MOZYME   - USE LOCALIZED M.O.s IN SOLVING THE SCF EQUATIONS
 *
 *
 *
 *                 CHARGE ON SYSTEM =     0
 *
 *
 *
 *  EPS= 78.400
 *  RSOLV=  1.300
 *  OLDGEO   - PREVIOUS GEOMETRY TO BE USED
 *  T=       - A TIME OF 172800.0 SECONDS REQUESTED
 *  DUMP=N   - RESTART FILE WRITTEN EVERY  4320.000 SECONDS
 *  RELSCF   - DEFAULT SCF CRITERION MULTIPLIED BY   0.100    
 *             (DEFAULT SCFCRT= 0.00010)
 *  THERMO   - THERMODYNAMIC QUANTITIES TO BE CALCULATED
 *******************************************************************************
 PM6 DUMP=4320 MOZYME RELSCF=0.1 THERMO EPS=78.40 RSOLV=1.30 +
 OLDGEO GEO-OK CHARGE=-0
 SJ000001185-1_T001S001I001C01_004: Free energy calculation

   ATOM           CHEMICAL             X               Y              Z
  NUMBER           SYMBOL         (ANGSTROMS)     (ANGSTROMS)    (ANGSTROMS)
 
     1       N(     1  N     )   -1.0560000  *  -26.186000  *   11.869000  *
     2       C(     2  C     )   -1.9030000  *  -27.232000  *   11.895000  *
     3       O(     3  O     )   -1.4720000  *  -28.356000  *   12.075000  *
     4       C(     4  C     )   -3.3470000  *  -27.024000  *   11.708000  *
     5       C(     5  C     )   -4.2550000  *  -28.072000  *   11.728000  *
     6       C(     6  C     )   -5.6110000  *  -27.824000  *   11.544000  *
     7       C(     7  C     )   -6.0860000  *  -26.560000  *   11.343000  *
     8       C(     8  C     )   -3.8210000  *  -25.709000  *   11.500000  *
     9       C(     9  C     )   -5.1980000  *  -25.470000  *   11.316000  *
    10       C(    10  C     )   -5.6390000  *  -24.150000  *   11.113000  *
    11       C(    11  C     )   -4.7380000  *  -23.125000  *   11.095000  *
    12       C(    12  C     )   -3.3780000  *  -23.346000  *   11.274000  *
    13       C(    13  C     )   -2.9030000  *  -24.634000  *   11.478000  *
    14       C(    14  C     )   -1.4750000  *  -24.921000  *   11.678000  *
    15       O(    15  O     )   -0.6670000  *  -24.012000  *   11.664000  *
    16       H(    16  C     )   -3.9080000  *  -29.082000  *   11.884000  *
    17       H(    17  C     )   -6.3040000  *  -28.652000  *   11.562000  *
    18       H(    18  C     )   -6.6900000  *  -23.949000  *   10.971000  *
    19       H(    19  C     )   -5.0920000  *  -22.117000  *   10.937000  *
    20       H(    20  C     )   -2.6890000  *  -22.515000  *   11.255000  *
    21       C(    21  C     )    0.3130000  *  -26.423000  *   12.052000  *
    22       C(    22  C     )    1.1010000  *  -26.807000  *   10.976000  *
    23       C(    23  C     )    2.4550000  *  -27.040000  *   11.161000  *
    24       H(    24  C     )    0.6610000  *  -26.923000  *    9.997000  *
    25       C(    25  C     )    3.0180000  *  -26.895000  *   12.422000  *
    26       C(    26  C     )    2.2320000  *  -26.507000  *   13.490000  *
    27       H(    27  C     )    4.0730000  *  -27.076000  *   12.566000  *
    28       C(    28  C     )    0.8830000  *  -26.274000  *   13.309000  *
    29       H(    29  C     )    2.6730000  *  -26.391000  *   14.469000  *
    30       H(    30  C     )    0.2700000  *  -25.976000  *   14.148000  *
    31       O(    31  O     )    3.2290000  *  -27.416000  *   10.109000  *
    32       H(    32  O     )    3.4770000  *  -26.689000  *    9.523000  *
    33       N(    33  N     )   -7.5370000  *  -26.338000  *   11.153000  *
    34       O(    34  O     )   -8.2040000  *  -25.865000  *   12.056000  *
    35       O(    35  O     )   -8.0630000  *  -26.627000  *   10.093000  *
 


          CARTESIAN COORDINATES 

    NO.       ATOM         X         Y         Z

     1         N       -1.0560  -26.1860   11.8690
     2         C       -1.9030  -27.2320   11.8950
     3         O       -1.4720  -28.3560   12.0750
     4         C       -3.3470  -27.0240   11.7080
     5         C       -4.2550  -28.0720   11.7280
     6         C       -5.6110  -27.8240   11.5440
     7         C       -6.0860  -26.5600   11.3430
     8         C       -3.8210  -25.7090   11.5000
     9         C       -5.1980  -25.4700   11.3160
    10         C       -5.6390  -24.1500   11.1130
    11         C       -4.7380  -23.1250   11.0950
    12         C       -3.3780  -23.3460   11.2740
    13         C       -2.9030  -24.6340   11.4780
    14         C       -1.4750  -24.9210   11.6780
    15         O       -0.6670  -24.0120   11.6640
    16         H       -3.9080  -29.0820   11.8840
    17         H       -6.3040  -28.6520   11.5620
    18         H       -6.6900  -23.9490   10.9710
    19         H       -5.0920  -22.1170   10.9370
    20         H       -2.6890  -22.5150   11.2550
    21         C        0.3130  -26.4230   12.0520
    22         C        1.1010  -26.8070   10.9760
    23         C        2.4550  -27.0400   11.1610
    24         H        0.6610  -26.9230    9.9970
    25         C        3.0180  -26.8950   12.4220
    26         C        2.2320  -26.5070   13.4900
    27         H        4.0730  -27.0760   12.5660
    28         C        0.8830  -26.2740   13.3090
    29         H        2.6730  -26.3910   14.4690
    30         H        0.2700  -25.9760   14.1480
    31         O        3.2290  -27.4160   10.1090
    32         H        3.4770  -26.6890    9.5230
    33         N       -7.5370  -26.3380   11.1530
    34         O       -8.2040  -25.8650   12.0560
    35         O       -8.0630  -26.6270   10.0930

 General Reference for PM6:
 "Optimization of Parameters for Semiempirical Methods V: Modification of NDDO Approximations
 and Application to 70 Elements", J. J. P. Stewart, J. Mol. Mod., 13, 1173-1213 (2007)
 URL: http://www.springerlink.com/content/ar33482301010477/fulltext.pdf

           Empirical Formula: C18 H10 N2 O5  =    35 atoms



      MOLECULAR POINT GROUP   :   C1  
 
   NUMBER AND TYPES OF BONDS IDENTIFIED
 
         SIGMA BONDS               39
         LONE PAIRS                12
         NORMAL PI BONDS            4
         AROMATIC RING PI BONDS     6
 
  SCF CRITERION =    0.1000E-02


          HEAT OF FORMATION =     -44.910190 KCALS/MOLE


          INTERNAL COORDINATE DERIVATIVES

   NUMBER  ATOM       BOND         ANGLE      DIHEDRAL

     1       N
     2       C      4.101735
     3       O    -12.604341     0.206308
     4       C   -103.903590    -9.767828     0.236311
     5       C    -15.054923   -26.509532    -0.131850
     6       C    -15.771999    10.142320     0.044314
     7       C     24.656506   -24.831020    -0.006008
     8       C    -27.291809    15.142479     0.484664
     9       C     -8.747213     4.909762     0.145809
    10       C      0.474786    -1.042951     0.157432
    11       C      3.968909     3.860702    -0.659664
    12       C      3.619290    14.939105     0.252571
    13       C     -0.856784    24.989045     0.052790
    14       C     10.914546   -31.858295     0.002745
    15       O     -1.099162    12.765168    -0.586099
    16       H     60.852645    90.406015     0.668252
    17       H     32.846677    -2.723591    -0.146546
    18       H     -8.004805   -11.561668    -0.034512
    19       H    -16.285612    -3.019616     0.006591
    20       H     -3.727783    10.956959    -0.219828
    21       C      8.279269    10.714036    -0.010434
    22       C     13.153326    -0.400910     0.033538
    23       C     29.892612   -57.786703     1.127339
    24       H     -8.436789    10.333599    22.238956
    25       C      5.439665     9.793635    -7.773384
    26       C     -2.455062     3.146052    10.015891
    27       H     11.115311   -21.298140     1.325263
    28       C      2.743821    -8.078342    -8.211754
    29       H      4.628283    -8.570129     0.996961
    30       H     -3.870545    11.347107   -20.022455
    31       O      3.563343    -3.916742    -8.831924
    32       H     -0.901322     4.427927    -8.819534
    33       N    -10.512913   -22.475030     9.713873
    34       O     10.269761     7.493245     7.770273
    35       O    -12.298469    14.627158     0.908239


          GRADIENT NORM = 199.27601



 ** GRADIENT IS TOO LARGE TO ALLOW FORCE MATRIX TO BE CALCULATED, (LIMIT=10) **



 EITHER ADD 'LET' OR REDUCE GRADIENT
 USING 'TS' OR OTHER GEOMETRY OPTIMIZER



 TOTAL CPU TIME:             1.15 SECONDS

 == MOPAC DONE ==
