 *******************************************************************************
 ** Site#:  958            For non-commercial use only         Version 9.015L **
 *******************************************************************************
 ** Cite this work as: MOPAC2009, James J. P. Stewart, Stewart Computational  **
 ** Chemistry, Version 9.015L web: HTTP://OpenMOPAC.net                       **
 *******************************************************************************
 **                                                                           **
 **                                MOPAC2009                                  **
 **                                                                           **
 *******************************************************************************

                            PM6 CALCULATION RESULTS


 *******************************************************************************
 *  CALCULATION DONE:                                Wed Sep  7 17:59:56 2011  *
 *  PM6      - The PM6 Hamiltonian to be used
 *  PDBOUT   - PRINT GEOMETY IN PDB FORMAT
 *  MOZYME   - USE LOCALIZED M.O.s IN SOLVING THE SCF EQUATIONS
 *
 *
 *
 *                 CHARGE ON SYSTEM =     0
 *
 *
 *
 *  EPS= 78.400
 *  RSOLV=  1.300
 *  LET      - OVERRIDE SOME SAFETY CHECKS
 *  XYZ      - CARTESIAN COORDINATE SYSTEM TO BE USED
 *  LBFGS    - USE THE LBFGS GEOMETRY OPTIMIZER
 *  1SCF     - DO 1 SCF AND THEN STOP 
 *  T=       - A TIME OF  0.3E+08 SECONDS REQUESTED
 *  DUMP=N   - RESTART FILE WRITTEN EVERY  4320.000 SECONDS
 *  DDMIN=   - MINIMUM TRUST RADIUS  0.000 ANG/RAD
 *  GNORM=   - EXIT WHEN GRADIENT NORM DROPS BELOW .150    
 *  RELSCF   - DEFAULT SCF CRITERION MULTIPLIED BY   0.100    
 *             (DEFAULT SCFCRT= 0.00010)
 *  MULLIK   - THE MULLIKEN ANALYSIS TO BE PERFORMED
 *******************************************************************************
 PM6 T=31443656 DUMP=4320 XYZ EPS=78.40 RSOLV=1.30 MULLIK LBFGS MOZYME PDBOUT +
 CHARGE=0 RELSCF=0.1 LET DDMIN=0.0 GNORM=0.15 1SCF
 SJ000002349-1_T001S001I001C02_002: Geometry optimization step

   ATOM   CHEMICAL          X               Y              Z
  NUMBER   SYMBOL      (ANGSTROMS)     (ANGSTROMS)    (ANGSTROMS)
 
     1       C          3.5030000  *  -27.145000  *    8.863000  *
     2       C          2.0150000  *  -27.370000  *    8.587000  *
     3       C          1.1920000  *  -26.764000  *    9.698000  *
     4       C          1.6730000  *  -26.712000  *   10.954000  *
     5       C          0.8370000  *  -26.115000  *   12.058000  *
     6       C         -0.6180000  *  -26.085000  *   11.659000  *
     7       C         -0.9630000  *  -26.169000  *   10.361000  *
     8       C         -2.4150000  *  -26.142000  *    9.952000  *
     9       C         -3.2760000  *  -26.767000  *   11.052000  *
    10       C         -3.0600000  *  -25.956000  *   12.332000  *
    11       C         -1.5940000  *  -25.969000  *   12.667000  *
    12       O         -1.2450000  *  -25.879000  *   13.828000  *
    13       O         -0.0250000  *  -26.276000  *    9.404000  *
    14       C          2.9530000  *  -27.206000  *   11.265000  *
    15       O          3.3520000  *  -27.148000  *   12.412000  *
    16       C          3.8360000  *  -27.804000  *   10.205000  *
    17       H          1.7480000  *  -26.902000  *    7.640000  *
    18       H          1.8150000  *  -28.441000  *    8.530000  *
    19       H          0.9490000  *  -26.717000  *   12.960000  *
    20       H         -2.7270000  *  -25.110000  *    9.790000  *
    21       H         -2.5430000  *  -26.707000  *    9.027000  *
    22       H         -3.3900000  *  -24.928000  *   12.176000  *
    23       H         -3.6270000  *  -26.403000  *   13.149000  *
    24       H          3.6560000  *  -28.877000  *   10.141000  *
    25       H          4.8810000  *  -27.622000  *   10.453000  *
    26       C          1.3060000  *  -24.711000  *   12.334000  *
    27       C          1.4960000  *  -24.287000  *   13.642000  *
    28       C          1.9280000  *  -22.994000  *   13.896000  *
    29       C          2.1690000  *  -22.128000  *   12.841000  *
    30       H          2.0760000  *  -22.663000  *   14.912000  *
    31       C          1.9770000  *  -22.555000  *   11.534000  *
    32       C          1.5520000  *  -23.845000  *   11.285000  *
    33       H          2.1650000  *  -21.880000  *   10.713000  *
    34       H          1.4040000  *  -24.177000  *   10.267000  *
    35       O          1.2590000  *  -25.139000  *   14.673000  *
    36       H          0.3280000  *  -25.377000  *   14.782000  *
    37       O          2.5930000  *  -20.859000  *   13.086000  *
    38       H          1.8780000  *  -20.237000  *   13.277000  *
    39       C          4.3380000  *  -27.784000  *    7.752000  *
    40       H          3.7990000  *  -27.713000  *    6.807000  *
    41       H          5.2910000  *  -27.261000  *    7.667000  *
    42       H          4.5180000  *  -28.832000  *    7.990000  *
    43       C          3.7950000  *  -25.645000  *    8.933000  *
    44       H          4.4960000  *  -25.374000  *    8.145000  *
    45       H          2.8670000  *  -25.088000  *    8.803000  *
    46       H          4.2290000  *  -25.405000  *    9.903000  *
    47       C         -4.7500000  *  -26.715000  *   10.647000  *
    48       H         -5.0990000  *  -25.683000  *   10.680000  *
    49       H         -4.8630000  *  -27.105000  *    9.635000  *
    50       H         -5.3370000  *  -27.320000  *   11.337000  *
    51       C         -2.8520000  *  -28.219000  *   11.277000  *
    52       H         -3.7190000  *  -28.872000  *   11.171000  *
    53       H         -2.0970000  *  -28.496000  *   10.542000  *
    54       H         -2.4380000  *  -28.325000  *   12.280000  *
 


          CARTESIAN COORDINATES 

    NO.       ATOM         X         Y         Z

     1         C        3.5030  -27.1450    8.8630
     2         C        2.0150  -27.3700    8.5870
     3         C        1.1920  -26.7640    9.6980
     4         C        1.6730  -26.7120   10.9540
     5         C        0.8370  -26.1150   12.0580
     6         C       -0.6180  -26.0850   11.6590
     7         C       -0.9630  -26.1690   10.3610
     8         C       -2.4150  -26.1420    9.9520
     9         C       -3.2760  -26.7670   11.0520
    10         C       -3.0600  -25.9560   12.3320
    11         C       -1.5940  -25.9690   12.6670
    12         O       -1.2450  -25.8790   13.8280
    13         O       -0.0250  -26.2760    9.4040
    14         C        2.9530  -27.2060   11.2650
    15         O        3.3520  -27.1480   12.4120
    16         C        3.8360  -27.8040   10.2050
    17         H        1.7480  -26.9020    7.6400
    18         H        1.8150  -28.4410    8.5300
    19         H        0.9490  -26.7170   12.9600
    20         H       -2.7270  -25.1100    9.7900
    21         H       -2.5430  -26.7070    9.0270
    22         H       -3.3900  -24.9280   12.1760
    23         H       -3.6270  -26.4030   13.1490
    24         H        3.6560  -28.8770   10.1410
    25         H        4.8810  -27.6220   10.4530
    26         C        1.3060  -24.7110   12.3340
    27         C        1.4960  -24.2870   13.6420
    28         C        1.9280  -22.9940   13.8960
    29         C        2.1690  -22.1280   12.8410
    30         H        2.0760  -22.6630   14.9120
    31         C        1.9770  -22.5550   11.5340
    32         C        1.5520  -23.8450   11.2850
    33         H        2.1650  -21.8800   10.7130
    34         H        1.4040  -24.1770   10.2670
    35         O        1.2590  -25.1390   14.6730
    36         H        0.3280  -25.3770   14.7820
    37         O        2.5930  -20.8590   13.0860
    38         H        1.8780  -20.2370   13.2770
    39         C        4.3380  -27.7840    7.7520
    40         H        3.7990  -27.7130    6.8070
    41         H        5.2910  -27.2610    7.6670
    42         H        4.5180  -28.8320    7.9900
    43         C        3.7950  -25.6450    8.9330
    44         H        4.4960  -25.3740    8.1450
    45         H        2.8670  -25.0880    8.8030
    46         H        4.2290  -25.4050    9.9030
    47         C       -4.7500  -26.7150   10.6470
    48         H       -5.0990  -25.6830   10.6800
    49         H       -4.8630  -27.1050    9.6350
    50         H       -5.3370  -27.3200   11.3370
    51         C       -2.8520  -28.2190   11.2770
    52         H       -3.7190  -28.8720   11.1710
    53         H       -2.0970  -28.4960   10.5420
    54         H       -2.4380  -28.3250   12.2800

 General Reference for PM6:
 "Optimization of Parameters for Semiempirical Methods V: Modification of NDDO Approximations
 and Application to 70 Elements", J. J. P. Stewart, J. Mol. Mod., 13, 1173-1213 (2007)
 URL: http://www.springerlink.com/content/ar33482301010477/fulltext.pdf

           Empirical Formula: C23 H26 O5  =    54 atoms



      MOLECULAR POINT GROUP   :   C1  
 
   NUMBER AND TYPES OF BONDS IDENTIFIED
 
         SIGMA BONDS               57
         LONE PAIRS                10
         NORMAL PI BONDS            6
         AROMATIC RING PI BONDS     1
 

                  Ramachandran Angles
              Residue    phi    psi  omega

  
  SCF CRITERION =    0.1000E-02

 -------------------------------------------------------------------------------
 PM6 T=31443656 DUMP=4320 XYZ EPS=78.40 RSOLV=1.30 MULLIK LBFGS MOZYME PDBOUT +
 CHARGE=0 RELSCF=0.1 LET DDMIN=0.0 GNORM=0.15 1SCF
 SJ000002349-1_T001S001I001C02_002: Geometry optimization step



     1SCF WAS SPECIFIED, SO BFGS WAS NOT USED                 
     SCF FIELD WAS ACHIEVED                                   


                               PM6     CALCULATION
                                                       MOPAC2009 (Version: 9.015L)
                                                       Wed Sep  7 17:59:57 2011




          FINAL HEAT OF FORMATION =       -191.82374 KCAL =    -802.59054 KJ
          VAN DER WAALS AREA      =        362.45 SQUARE ANGSTROMS


          TOTAL ENERGY            =      -4641.64563 EV
          ELECTRONIC ENERGY       =     -41793.23178 EV
          CORE-CORE REPULSION     =      37151.58615 EV
          DIELECTRIC ENERGY       =         -1.42699 EV
          COSMO AREA              =        362.45 SQUARE ANGSTROMS
          COSMO VOLUME            =        445.45 CUBIC ANGSTROMS

          NO. OF FILLED LEVELS    =         74
          MOLECULAR WEIGHT        =        382.455

          MOLECULAR DIMENSIONS (Angstroms)

            Atom       Atom       Distance
            H    52    H    38    10.50356
            H    41    H    48    10.31050
            H    40    O    35     5.70486


          SCF CALCULATIONS        =          2
          COMPUTATION TIME        =          0.573 SECONDS




   ATOM           CHEMICAL             X               Y              Z
  NUMBER           SYMBOL         (ANGSTROMS)     (ANGSTROMS)    (ANGSTROMS)
 
     1       C(     1  C     )    3.5030000  *  -27.145000  *    8.863000  *
     2       C(     2  C     )    2.0150000  *  -27.370000  *    8.587000  *
     3       C(     3  C     )    1.1920000  *  -26.764000  *    9.698000  *
     4       C(     4  C     )    1.6730000  *  -26.712000  *   10.954000  *
     5       C(     5  C     )    0.8370000  *  -26.115000  *   12.058000  *
     6       C(     6  C     )   -0.6180000  *  -26.085000  *   11.659000  *
     7       C(     7  C     )   -0.9630000  *  -26.169000  *   10.361000  *
     8       C(     8  C     )   -2.4150000  *  -26.142000  *    9.952000  *
     9       C(     9  C     )   -3.2760000  *  -26.767000  *   11.052000  *
    10       C(    10  C     )   -3.0600000  *  -25.956000  *   12.332000  *
    11       C(    11  C     )   -1.5940000  *  -25.969000  *   12.667000  *
    12       O(    12  O     )   -1.2450000  *  -25.879000  *   13.828000  *
    13       O(    13  O     )   -0.0250000  *  -26.276000  *    9.404000  *
    14       C(    14  C     )    2.9530000  *  -27.206000  *   11.265000  *
    15       O(    15  O     )    3.3520000  *  -27.148000  *   12.412000  *
    16       C(    16  C     )    3.8360000  *  -27.804000  *   10.205000  *
    17       H(    17  C     )    1.7480000  *  -26.902000  *    7.640000  *
    18       H(    18  C     )    1.8150000  *  -28.441000  *    8.530000  *
    19       H(    19  C     )    0.9490000  *  -26.717000  *   12.960000  *
    20       H(    20  C     )   -2.7270000  *  -25.110000  *    9.790000  *
    21       H(    21  C     )   -2.5430000  *  -26.707000  *    9.027000  *
    22       H(    22  C     )   -3.3900000  *  -24.928000  *   12.176000  *
    23       H(    23  C     )   -3.6270000  *  -26.403000  *   13.149000  *
    24       H(    24  C     )    3.6560000  *  -28.877000  *   10.141000  *
    25       H(    25  C     )    4.8810000  *  -27.622000  *   10.453000  *
    26       C(    26  C     )    1.3060000  *  -24.711000  *   12.334000  *
    27       C(    27  C     )    1.4960000  *  -24.287000  *   13.642000  *
    28       C(    28  C     )    1.9280000  *  -22.994000  *   13.896000  *
    29       C(    29  C     )    2.1690000  *  -22.128000  *   12.841000  *
    30       H(    30  C     )    2.0760000  *  -22.663000  *   14.912000  *
    31       C(    31  C     )    1.9770000  *  -22.555000  *   11.534000  *
    32       C(    32  C     )    1.5520000  *  -23.845000  *   11.285000  *
    33       H(    33  C     )    2.1650000  *  -21.880000  *   10.713000  *
    34       H(    34  C     )    1.4040000  *  -24.177000  *   10.267000  *
    35       O(    35  O     )    1.2590000  *  -25.139000  *   14.673000  *
    36       H(    36  O     )    0.3280000  *  -25.377000  *   14.782000  *
    37       O(    37  O     )    2.5930000  *  -20.859000  *   13.086000  *
    38       H(    38  O     )    1.8780000  *  -20.237000  *   13.277000  *
    39       C(    39  C     )    4.3380000  *  -27.784000  *    7.752000  *
    40       H(    40  C     )    3.7990000  *  -27.713000  *    6.807000  *
    41       H(    41  C     )    5.2910000  *  -27.261000  *    7.667000  *
    42       H(    42  C     )    4.5180000  *  -28.832000  *    7.990000  *
    43       C(    43  C     )    3.7950000  *  -25.645000  *    8.933000  *
    44       H(    44  C     )    4.4960000  *  -25.374000  *    8.145000  *
    45       H(    45  C     )    2.8670000  *  -25.088000  *    8.803000  *
    46       H(    46  C     )    4.2290000  *  -25.405000  *    9.903000  *
    47       C(    47  C     )   -4.7500000  *  -26.715000  *   10.647000  *
    48       H(    48  C     )   -5.0990000  *  -25.683000  *   10.680000  *
    49       H(    49  C     )   -4.8630000  *  -27.105000  *    9.635000  *
    50       H(    50  C     )   -5.3370000  *  -27.320000  *   11.337000  *
    51       C(    51  C     )   -2.8520000  *  -28.219000  *   11.277000  *
    52       H(    52  C     )   -3.7190000  *  -28.872000  *   11.171000  *
    53       H(    53  C     )   -2.0970000  *  -28.496000  *   10.542000  *
    54       H(    54  C     )   -2.4380000  *  -28.325000  *   12.280000  *

           Empirical Formula: C23 H26 O5  =    54 atoms



              NET ATOMIC CHARGES AND DIPOLE CONTRIBUTIONS

  ATOM NO.   TYPE          CHARGE      No. of ELECS.   s-Pop       p-Pop       
    1          C           0.286800        3.7132     1.06311     2.65009
    2          C          -0.422264        4.4223     1.10784     3.31443
    3          C           0.441016        3.5590     1.10178     2.45721
    4          C          -0.490264        4.4903     1.11022     3.38005
    5          C           0.134796        3.8652     1.04968     2.81552
    6          C          -0.500920        4.5009     1.11025     3.39067
    7          C           0.456461        3.5435     1.10116     2.44238
    8          C          -0.426519        4.4265     1.10779     3.31873
    9          C           0.287784        3.7122     1.06309     2.64913
   10          C          -0.527830        4.5278     1.11781     3.41002
   11          C           0.673468        3.3265     1.07610     2.25043
   12          O          -0.646690        6.6467     1.84005     4.80664
   13          O          -0.345039        6.3450     1.78407     4.56097
   14          C           0.670271        3.3297     1.07446     2.25527
   15          O          -0.637507        6.6375     1.84479     4.79272
   16          C          -0.530478        4.5305     1.11835     3.41213
   17          H           0.200003        0.8000     0.80000
   18          H           0.208732        0.7913     0.79127
   19          H           0.153614        0.8464     0.84639
   20          H           0.208711        0.7913     0.79129
   21          H           0.200909        0.7991     0.79909
   22          H           0.210486        0.7895     0.78951
   23          H           0.205457        0.7945     0.79454
   24          H           0.208182        0.7918     0.79182
   25          H           0.203730        0.7963     0.79627
   26          C          -0.209348        4.2093     1.09996     3.10939
   27          C           0.382361        3.6176     1.05882     2.55882
   28          C          -0.438767        4.4388     1.11277     3.32600
   29          C           0.382671        3.6173     1.05797     2.55936
   30          H           0.204564        0.7954     0.79544
   31          C          -0.356427        4.3564     1.10761     3.24882
   32          C          -0.008538        4.0085     1.09709     2.91145
   33          H           0.190134        0.8099     0.80987
   34          H           0.156507        0.8435     0.84349
   35          O          -0.570039        6.5700     1.77339     4.79665
   36          H           0.377478        0.6225     0.62252
   37          O          -0.569980        6.5700     1.77284     4.79714
   38          H           0.377527        0.6225     0.62247
   39          C          -0.546600        4.5466     1.09577     3.45083
   40          H           0.171792        0.8282     0.82821
   41          H           0.175025        0.8250     0.82497
   42          H           0.170952        0.8290     0.82905
   43          C          -0.559762        4.5598     1.09760     3.46216
   44          H           0.176927        0.8231     0.82307
   45          H           0.168392        0.8316     0.83161
   46          H           0.170965        0.8290     0.82903
   47          C          -0.544219        4.5442     1.09506     3.44916
   48          H           0.170002        0.8300     0.83000
   49          H           0.172902        0.8271     0.82710
   50          H           0.174531        0.8255     0.82547
   51          C          -0.560068        4.5601     1.09723     3.46284
   52          H           0.177125        0.8229     0.82288
   53          H           0.170920        0.8291     0.82908
   54          H           0.170064        0.8299     0.82994


          CARTESIAN COORDINATES 

    NO.       ATOM               X         Y         Z

     1         C                  3.5030  -27.1450    8.8630
     2         C                  2.0150  -27.3700    8.5870
     3         C                  1.1920  -26.7640    9.6980
     4         C                  1.6730  -26.7120   10.9540
     5         C                  0.8370  -26.1150   12.0580
     6         C                 -0.6180  -26.0850   11.6590
     7         C                 -0.9630  -26.1690   10.3610
     8         C                 -2.4150  -26.1420    9.9520
     9         C                 -3.2760  -26.7670   11.0520
    10         C                 -3.0600  -25.9560   12.3320
    11         C                 -1.5940  -25.9690   12.6670
    12         O                 -1.2450  -25.8790   13.8280
    13         O                 -0.0250  -26.2760    9.4040
    14         C                  2.9530  -27.2060   11.2650
    15         O                  3.3520  -27.1480   12.4120
    16         C                  3.8360  -27.8040   10.2050
    17         H                  1.7480  -26.9020    7.6400
    18         H                  1.8150  -28.4410    8.5300
    19         H                  0.9490  -26.7170   12.9600
    20         H                 -2.7270  -25.1100    9.7900
    21         H                 -2.5430  -26.7070    9.0270
    22         H                 -3.3900  -24.9280   12.1760
    23         H                 -3.6270  -26.4030   13.1490
    24         H                  3.6560  -28.8770   10.1410
    25         H                  4.8810  -27.6220   10.4530
    26         C                  1.3060  -24.7110   12.3340
    27         C                  1.4960  -24.2870   13.6420
    28         C                  1.9280  -22.9940   13.8960
    29         C                  2.1690  -22.1280   12.8410
    30         H                  2.0760  -22.6630   14.9120
    31         C                  1.9770  -22.5550   11.5340
    32         C                  1.5520  -23.8450   11.2850
    33         H                  2.1650  -21.8800   10.7130
    34         H                  1.4040  -24.1770   10.2670
    35         O                  1.2590  -25.1390   14.6730
    36         H                  0.3280  -25.3770   14.7820
    37         O                  2.5930  -20.8590   13.0860
    38         H                  1.8780  -20.2370   13.2770
    39         C                  4.3380  -27.7840    7.7520
    40         H                  3.7990  -27.7130    6.8070
    41         H                  5.2910  -27.2610    7.6670
    42         H                  4.5180  -28.8320    7.9900
    43         C                  3.7950  -25.6450    8.9330
    44         H                  4.4960  -25.3740    8.1450
    45         H                  2.8670  -25.0880    8.8030
    46         H                  4.2290  -25.4050    9.9030
    47         C                 -4.7500  -26.7150   10.6470
    48         H                 -5.0990  -25.6830   10.6800
    49         H                 -4.8630  -27.1050    9.6350
    50         H                 -5.3370  -27.3200   11.3370
    51         C                 -2.8520  -28.2190   11.2770
    52         H                 -3.7190  -28.8720   11.1710
    53         H                 -2.0970  -28.4960   10.5420
    54         H                 -2.4380  -28.3250   12.2800


          ATOMIC ORBITAL ELECTRON POPULATIONS

   1.06311   0.85933   0.90459   0.88617   1.10784   1.05526   1.16639   1.09277
   1.10178   0.74743   0.77525   0.93452   1.11022   1.09858   1.23668   1.04479
   1.04968   0.85752   0.95355   1.00446   1.11025   1.07370   1.27748   1.03950
   1.10116   0.84084   0.76210   0.83943   1.10779   0.96965   1.19706   1.15202
   1.06309   0.90318   0.89155   0.85440   1.11781   1.08077   1.18486   1.14438
   1.07610   0.86529   0.58562   0.79952   1.84005   1.85800   1.54915   1.39948
   1.78407   1.31884   1.71521   1.52691   1.07446   0.81250   0.63911   0.80366
   1.84479   1.79398   1.60257   1.39617   1.11835   1.16454   1.17064   1.07695
   0.80000   0.79127   0.84639   0.79129   0.79909   0.78951   0.79454   0.79182
   0.79627   1.09996   1.09695   1.02090   0.99155   1.05882   0.89137   0.84115
   0.82630   1.11277   1.17317   1.02969   1.12314   1.05797   0.87096   0.77149
   0.91690   0.79544   1.10761   1.12052   1.06288   1.06542   1.09709   0.91084
   0.94830   1.05232   0.80987   0.84349   1.77339   1.48691   1.70233   1.60741
   0.62252   1.77284   1.54060   1.32244   1.93410   0.62247   1.09577   1.15485
   1.17229   1.12370   0.82821   0.82497   0.82905   1.09760   1.19107   1.07319
   1.19790   0.82307   0.83161   0.82903   1.09506   1.06882   1.19379   1.18655
   0.83000   0.82710   0.82547   1.09723   1.18929   1.08369   1.18985   0.82288
   0.82908   0.82994

           MULLIKEN POPULATION ANALYSIS



        MULLIKEN POPULATIONS AND CHARGES

      NO.  ATOM   POPULATION      CHARGE
        1    C     3.684195      0.315805
        2    C     4.542078     -0.542078
        3    C     3.536011      0.463989
        4    C     4.541315     -0.541315
        5    C     3.861808      0.138192
        6    C     4.552292     -0.552292
        7    C     3.518901      0.481099
        8    C     4.546832     -0.546832
        9    C     3.683417      0.316583
       10    C     4.659416     -0.659416
       11    C     3.274618      0.725382
       12    O     6.674832     -0.674832
       13    O     6.391901     -0.391901
       14    C     3.276896      0.723104
       15    O     6.662786     -0.662786
       16    C     4.662095     -0.662095
       17    H     0.742749      0.257251
       18    H     0.733820      0.266180
       19    H     0.797259      0.202741
       20    H     0.733562      0.266438
       21    H     0.741922      0.258078
       22    H     0.732563      0.267437
       23    H     0.736530      0.263470
       24    H     0.735333      0.264667
       25    H     0.738552      0.261448
       26    C     4.231863     -0.231863
       27    C     3.592064      0.407936
       28    C     4.514936     -0.514936
       29    C     3.593757      0.406243
       30    H     0.731251      0.268749
       31    C     4.426136     -0.426136
       32    C     4.040964     -0.040964
       33    H     0.749645      0.250355
       34    H     0.793497      0.206503
       35    O     6.620929     -0.620929
       36    H     0.586038      0.413962
       37    O     6.620860     -0.620860
       38    H     0.587449      0.412551
       39    C     4.693531     -0.693531
       40    H     0.780111      0.219889
       41    H     0.776411      0.223589
       42    H     0.780703      0.219297
       43    C     4.705935     -0.705935
       44    H     0.773734      0.226266
       45    H     0.784801      0.215199
       46    H     0.781256      0.218744
       47    C     4.691556     -0.691556
       48    H     0.781699      0.218301
       49    H     0.778534      0.221466
       50    H     0.776627      0.223373
       51    C     4.706790     -0.706790
       52    H     0.773548      0.226452
       53    H     0.781239      0.218761
       54    H     0.782452      0.217548



 TOTAL CPU TIME:             0.61 SECONDS

 == MOPAC DONE ==
 *******************************************************************************
 ** Site#:  958            For non-commercial use only         Version 9.015L **
 *******************************************************************************
 ** Cite this work as: MOPAC2009, James J. P. Stewart, Stewart Computational  **
 ** Chemistry, Version 9.015L web: HTTP://OpenMOPAC.net                       **
 *******************************************************************************
 **                                                                           **
 **                                MOPAC2009                                  **
 **                                                                           **
 *******************************************************************************

                            PM6 CALCULATION RESULTS


 *******************************************************************************
 *  CALCULATION DONE:                                Wed Sep  7 17:59:57 2011  *
 *  PM6      - The PM6 Hamiltonian to be used
 *  GEO-OK   - OVERRIDE INTERATOMIC DISTANCE CHECK
 *  MOZYME   - USE LOCALIZED M.O.s IN SOLVING THE SCF EQUATIONS
 *
 *
 *
 *                 CHARGE ON SYSTEM =     0
 *
 *
 *
 *  EPS= 78.400
 *  RSOLV=  1.300
 *  OLDGEO   - PREVIOUS GEOMETRY TO BE USED
 *  T=       - A TIME OF 172800.0 SECONDS REQUESTED
 *  DUMP=N   - RESTART FILE WRITTEN EVERY  4320.000 SECONDS
 *  RELSCF   - DEFAULT SCF CRITERION MULTIPLIED BY   0.100    
 *             (DEFAULT SCFCRT= 0.00010)
 *  THERMO   - THERMODYNAMIC QUANTITIES TO BE CALCULATED
 *******************************************************************************
 PM6 DUMP=4320 MOZYME RELSCF=0.1 THERMO EPS=78.40 RSOLV=1.30 +
 OLDGEO GEO-OK CHARGE=0
 SJ000002349-1_T001S001I001C02_002: Free energy calculation

   ATOM           CHEMICAL             X               Y              Z
  NUMBER           SYMBOL         (ANGSTROMS)     (ANGSTROMS)    (ANGSTROMS)
 
     1       C(     1  C     )    3.5030000  *  -27.145000  *    8.863000  *
     2       C(     2  C     )    2.0150000  *  -27.370000  *    8.587000  *
     3       C(     3  C     )    1.1920000  *  -26.764000  *    9.698000  *
     4       C(     4  C     )    1.6730000  *  -26.712000  *   10.954000  *
     5       C(     5  C     )    0.8370000  *  -26.115000  *   12.058000  *
     6       C(     6  C     )   -0.6180000  *  -26.085000  *   11.659000  *
     7       C(     7  C     )   -0.9630000  *  -26.169000  *   10.361000  *
     8       C(     8  C     )   -2.4150000  *  -26.142000  *    9.952000  *
     9       C(     9  C     )   -3.2760000  *  -26.767000  *   11.052000  *
    10       C(    10  C     )   -3.0600000  *  -25.956000  *   12.332000  *
    11       C(    11  C     )   -1.5940000  *  -25.969000  *   12.667000  *
    12       O(    12  O     )   -1.2450000  *  -25.879000  *   13.828000  *
    13       O(    13  O     )   -0.0250000  *  -26.276000  *    9.404000  *
    14       C(    14  C     )    2.9530000  *  -27.206000  *   11.265000  *
    15       O(    15  O     )    3.3520000  *  -27.148000  *   12.412000  *
    16       C(    16  C     )    3.8360000  *  -27.804000  *   10.205000  *
    17       H(    17  C     )    1.7480000  *  -26.902000  *    7.640000  *
    18       H(    18  C     )    1.8150000  *  -28.441000  *    8.530000  *
    19       H(    19  C     )    0.9490000  *  -26.717000  *   12.960000  *
    20       H(    20  C     )   -2.7270000  *  -25.110000  *    9.790000  *
    21       H(    21  C     )   -2.5430000  *  -26.707000  *    9.027000  *
    22       H(    22  C     )   -3.3900000  *  -24.928000  *   12.176000  *
    23       H(    23  C     )   -3.6270000  *  -26.403000  *   13.149000  *
    24       H(    24  C     )    3.6560000  *  -28.877000  *   10.141000  *
    25       H(    25  C     )    4.8810000  *  -27.622000  *   10.453000  *
    26       C(    26  C     )    1.3060000  *  -24.711000  *   12.334000  *
    27       C(    27  C     )    1.4960000  *  -24.287000  *   13.642000  *
    28       C(    28  C     )    1.9280000  *  -22.994000  *   13.896000  *
    29       C(    29  C     )    2.1690000  *  -22.128000  *   12.841000  *
    30       H(    30  C     )    2.0760000  *  -22.663000  *   14.912000  *
    31       C(    31  C     )    1.9770000  *  -22.555000  *   11.534000  *
    32       C(    32  C     )    1.5520000  *  -23.845000  *   11.285000  *
    33       H(    33  C     )    2.1650000  *  -21.880000  *   10.713000  *
    34       H(    34  C     )    1.4040000  *  -24.177000  *   10.267000  *
    35       O(    35  O     )    1.2590000  *  -25.139000  *   14.673000  *
    36       H(    36  O     )    0.3280000  *  -25.377000  *   14.782000  *
    37       O(    37  O     )    2.5930000  *  -20.859000  *   13.086000  *
    38       H(    38  O     )    1.8780000  *  -20.237000  *   13.277000  *
    39       C(    39  C     )    4.3380000  *  -27.784000  *    7.752000  *
    40       H(    40  C     )    3.7990000  *  -27.713000  *    6.807000  *
    41       H(    41  C     )    5.2910000  *  -27.261000  *    7.667000  *
    42       H(    42  C     )    4.5180000  *  -28.832000  *    7.990000  *
    43       C(    43  C     )    3.7950000  *  -25.645000  *    8.933000  *
    44       H(    44  C     )    4.4960000  *  -25.374000  *    8.145000  *
    45       H(    45  C     )    2.8670000  *  -25.088000  *    8.803000  *
    46       H(    46  C     )    4.2290000  *  -25.405000  *    9.903000  *
    47       C(    47  C     )   -4.7500000  *  -26.715000  *   10.647000  *
    48       H(    48  C     )   -5.0990000  *  -25.683000  *   10.680000  *
    49       H(    49  C     )   -4.8630000  *  -27.105000  *    9.635000  *
    50       H(    50  C     )   -5.3370000  *  -27.320000  *   11.337000  *
    51       C(    51  C     )   -2.8520000  *  -28.219000  *   11.277000  *
    52       H(    52  C     )   -3.7190000  *  -28.872000  *   11.171000  *
    53       H(    53  C     )   -2.0970000  *  -28.496000  *   10.542000  *
    54       H(    54  C     )   -2.4380000  *  -28.325000  *   12.280000  *
 


          CARTESIAN COORDINATES 

    NO.       ATOM         X         Y         Z

     1         C        3.5030  -27.1450    8.8630
     2         C        2.0150  -27.3700    8.5870
     3         C        1.1920  -26.7640    9.6980
     4         C        1.6730  -26.7120   10.9540
     5         C        0.8370  -26.1150   12.0580
     6         C       -0.6180  -26.0850   11.6590
     7         C       -0.9630  -26.1690   10.3610
     8         C       -2.4150  -26.1420    9.9520
     9         C       -3.2760  -26.7670   11.0520
    10         C       -3.0600  -25.9560   12.3320
    11         C       -1.5940  -25.9690   12.6670
    12         O       -1.2450  -25.8790   13.8280
    13         O       -0.0250  -26.2760    9.4040
    14         C        2.9530  -27.2060   11.2650
    15         O        3.3520  -27.1480   12.4120
    16         C        3.8360  -27.8040   10.2050
    17         H        1.7480  -26.9020    7.6400
    18         H        1.8150  -28.4410    8.5300
    19         H        0.9490  -26.7170   12.9600
    20         H       -2.7270  -25.1100    9.7900
    21         H       -2.5430  -26.7070    9.0270
    22         H       -3.3900  -24.9280   12.1760
    23         H       -3.6270  -26.4030   13.1490
    24         H        3.6560  -28.8770   10.1410
    25         H        4.8810  -27.6220   10.4530
    26         C        1.3060  -24.7110   12.3340
    27         C        1.4960  -24.2870   13.6420
    28         C        1.9280  -22.9940   13.8960
    29         C        2.1690  -22.1280   12.8410
    30         H        2.0760  -22.6630   14.9120
    31         C        1.9770  -22.5550   11.5340
    32         C        1.5520  -23.8450   11.2850
    33         H        2.1650  -21.8800   10.7130
    34         H        1.4040  -24.1770   10.2670
    35         O        1.2590  -25.1390   14.6730
    36         H        0.3280  -25.3770   14.7820
    37         O        2.5930  -20.8590   13.0860
    38         H        1.8780  -20.2370   13.2770
    39         C        4.3380  -27.7840    7.7520
    40         H        3.7990  -27.7130    6.8070
    41         H        5.2910  -27.2610    7.6670
    42         H        4.5180  -28.8320    7.9900
    43         C        3.7950  -25.6450    8.9330
    44         H        4.4960  -25.3740    8.1450
    45         H        2.8670  -25.0880    8.8030
    46         H        4.2290  -25.4050    9.9030
    47         C       -4.7500  -26.7150   10.6470
    48         H       -5.0990  -25.6830   10.6800
    49         H       -4.8630  -27.1050    9.6350
    50         H       -5.3370  -27.3200   11.3370
    51         C       -2.8520  -28.2190   11.2770
    52         H       -3.7190  -28.8720   11.1710
    53         H       -2.0970  -28.4960   10.5420
    54         H       -2.4380  -28.3250   12.2800

 General Reference for PM6:
 "Optimization of Parameters for Semiempirical Methods V: Modification of NDDO Approximations
 and Application to 70 Elements", J. J. P. Stewart, J. Mol. Mod., 13, 1173-1213 (2007)
 URL: http://www.springerlink.com/content/ar33482301010477/fulltext.pdf

           Empirical Formula: C23 H26 O5  =    54 atoms



      MOLECULAR POINT GROUP   :   C1  
 
   NUMBER AND TYPES OF BONDS IDENTIFIED
 
         SIGMA BONDS               57
         LONE PAIRS                10
         NORMAL PI BONDS            6
         AROMATIC RING PI BONDS     1
 
  SCF CRITERION =    0.1000E-02


          HEAT OF FORMATION =    -191.823457 KCALS/MOLE


          INTERNAL COORDINATE DERIVATIVES

   NUMBER  ATOM       BOND         ANGLE      DIHEDRAL

     1       C
     2       C     11.431931
     3       C      9.630959    -2.656947
     4       C    -24.195773   -22.458477   -13.564866
     5       C     37.296709    21.559116    20.792702
     6       C    -47.396953   -14.048917   -13.303762
     7       C     -1.105380     4.085946    -9.661511
     8       C     32.066097    33.886969    -8.479404
     9       C    -33.077066   -32.571443     1.496852
    10       C     29.430154    19.533588    -3.084132
    11       C    -14.511276    -1.006521     4.872320
    12       O     11.774871     9.302029     3.326895
    13       O    -21.966968   -35.909111     5.584964
    14       C      9.662235   -38.515890    18.874660
    15       O    -34.649626    54.072530   -35.566621
    16       C     40.773384     4.576560    27.068171
    17       H     24.331094   -20.789537    19.928981
    18       H     -9.440807    -8.815332    -9.817595
    19       H     -9.144034    12.019212    -8.634876
    20       H    -10.250017     8.851603     8.930093
    21       H      3.953657    -7.852988    20.537298
    22       H     -2.841312    -0.097125   -16.681699
    23       H     -6.543870    13.139979    -6.862947
    24       H     -3.799796   -11.314514    -9.228432
    25       H     -7.599877   -12.201195     4.250563
    26       C      1.290455     5.171585    14.359911
    27       C     13.522961     2.303378     6.682475
    28       C    -11.305358    16.500993    13.028296
    29       C     -3.317209    -1.816560    -8.578654
    30       H     11.497652   -25.780434     9.398320
    31       C    -12.666503     3.451253     7.337739
    32       C      2.585174    -8.955002     1.969297
    33       H      5.961084     8.270522   -22.785240
    34       H     -0.474382     8.129314    -7.917778
    35       O      1.053138     2.521213    -8.643852
    36       H     -3.022820     7.532306    -3.583074
    37       O     25.061601   -14.399095    13.782787
    38       H    -20.742235     1.755386     4.157689
    39       C     23.827540     0.242805    -9.238283
    40       H     -8.775166    -9.565283    -5.528521
    41       H     -5.564489    -5.111290     2.972725
    42       H      2.233612     8.432401    -1.796928
    43       C      4.727214     6.788450     0.441604
    44       H      2.082581     8.873722     2.042099
    45       H     -1.655035     0.685085     1.378304
    46       H      3.950015    -2.776291    -8.863303
    47       C      3.976112    -4.246215   -10.385294
    48       H      5.228259    -4.955716    -8.755573
    49       H      8.454843    -0.201180    -3.646992
    50       H     -7.892013    -0.940566    -3.700247
    51       C     -7.504532     2.031943    -1.029373
    52       H     -7.650447    -1.911767     0.590335
    53       H     -1.104702    -0.815607    -1.533896
    54       H      0.515874     3.770617     8.826663


          GRADIENT NORM = 186.68503



 ** GRADIENT IS TOO LARGE TO ALLOW FORCE MATRIX TO BE CALCULATED, (LIMIT=10) **



 EITHER ADD 'LET' OR REDUCE GRADIENT
 USING 'TS' OR OTHER GEOMETRY OPTIMIZER



 TOTAL CPU TIME:             1.35 SECONDS

 == MOPAC DONE ==
