 *******************************************************************************
 ** Site#:  958            For non-commercial use only         Version 9.015L **
 *******************************************************************************
 ** Cite this work as: MOPAC2009, James J. P. Stewart, Stewart Computational  **
 ** Chemistry, Version 9.015L web: HTTP://OpenMOPAC.net                       **
 *******************************************************************************
 **                                                                           **
 **                                MOPAC2009                                  **
 **                                                                           **
 *******************************************************************************

                            PM6 CALCULATION RESULTS


 *******************************************************************************
 *  CALCULATION DONE:                                Tue Sep  6 16:25:44 2011  *
 *  PM6      - The PM6 Hamiltonian to be used
 *
 *
 *
 *                 CHARGE ON SYSTEM =     0
 *
 *
 *
 *  EPS= 78.400
 *  RSOLV=  1.300
 *  LET      - OVERRIDE SOME SAFETY CHECKS
 *  XYZ      - CARTESIAN COORDINATE SYSTEM TO BE USED
 *  T=       - A TIME OF  0.3E+08 SECONDS REQUESTED
 *  DUMP=N   - RESTART FILE WRITTEN EVERY  4320.000 SECONDS
 *  DDMIN=   - MINIMUM TRUST RADIUS  0.000 ANG/RAD
 *  GNORM=   - EXIT WHEN GRADIENT NORM DROPS BELOW .150    
 *  RELSCF   - DEFAULT SCF CRITERION MULTIPLIED BY   0.100    
 *             (DEFAULT SCFCRT= 0.00010)
 *  SYBYL    - OUTPUT SYBYL FILE
 *  MULLIK   - THE MULLIKEN ANALYSIS TO BE PERFORMED
 *******************************************************************************
 PM6 T=31535708 DUMP=4320 XYZ EPS=78.40 RSOLV=1.30 MULLIK SYBYL +
 CHARGE=0 RELSCF=0.1 LET DDMIN=0.0 GNORM=0.15
 SJ000002349-1_T001S001I001C01: Geometry optimization step

   ATOM   CHEMICAL          X               Y              Z
  NUMBER   SYMBOL      (ANGSTROMS)     (ANGSTROMS)    (ANGSTROMS)
 
     1       C          0.0020000  *   -0.004000  *    0.002000  *
     2       C          0.7410000  *   -0.515000  *    1.240000  *
     3       C          0.7230000  *   -2.025000  *    1.256000  *
     4       C         -0.3070000  *   -2.706000  *    0.722000  *
     5       C         -0.3160000  *   -4.213000  *    0.755000  *
     6       C          0.6210000  *   -4.715000  *    1.825000  *
     7       C          1.5960000  *   -3.916000  *    2.297000  *
     8       C          2.5320000  *   -4.398000  *    3.380000  *
     9       C          2.7300000  *   -5.910000  *    3.254000  *
    10       C          1.3620000  *   -6.591000  *    3.363000  *
    11       C          0.4510000  *   -6.027000  *    2.307000  *
    12       O         -0.4480000  *   -6.714000  *    1.864000  *
    13       O          1.7600000  *   -2.672000  *    1.815000  *
    14       C         -1.3920000  *   -2.041000  *    0.120000  *
    15       O         -2.3110000  *   -2.690000  *   -0.339000  *
    16       C         -1.4340000  *   -0.538000  *    0.037000  *
    17       H          1.7730000  *   -0.165000  *    1.217000  *
    18       H          0.2510000  *   -0.137000  *    2.137000  *
    19       H         -1.3260000  *   -4.564000  *    0.969000  *
    20       H          3.4940000  *   -3.896000  *    3.277000  *
    21       H          2.1060000  *   -4.168000  *    4.356000  *
    22       H          1.4760000  *   -7.665000  *    3.211000  *
    23       H          0.9390000  *   -6.404000  *    4.349000  *
    24       H         -1.9510000  *   -0.139000  *    0.909000  *
    25       H         -1.9580000  *   -0.237000  *   -0.870000  *
    26       C          0.1250000  *   -4.745000  *   -0.584000  *
    27       C         -0.7270000  *   -5.554000  *   -1.323000  *
    28       C         -0.3220000  *   -6.043000  *   -2.556000  *
    29       C          0.9350000  *   -5.723000  *   -3.046000  *
    30       H         -0.9830000  *   -6.672000  *   -3.132000  *
    31       C          1.7830000  *   -4.914000  *   -2.303000  *
    32       C          1.3750000  *   -4.423000  *   -1.078000  *
    33       H          2.7620000  *   -4.665000  *   -2.685000  *
    34       H          2.0360000  *   -3.794000  *   -0.502000  *
    35       O         -1.9590000  *   -5.865000  *   -0.840000  *
    36       H         -2.6510000  *   -5.240000  *   -1.095000  *
    37       O          1.3350000  *   -6.200000  *   -4.254000  *
    38       H          1.1150000  *   -5.623000  *   -4.998000  *
    39       C         -0.0190000  *    1.526000  *    0.010000  *
    40       H          1.0040000  *    1.903000  *    0.003000  *
    41       H         -0.5460000  *    1.887000  *   -0.873000  *
    42       H         -0.5290000  *    1.877000  *    0.907000  *
    43       C          0.7090000  *   -0.501000  *   -1.260000  *
    44       H          1.7320000  *   -0.126000  *   -1.276000  *
    45       H          0.7230000  *   -1.591000  *   -1.264000  *
    46       H          0.1760000  *   -0.142000  *   -2.141000  *
    47       C          3.3590000  *   -6.234000  *    1.897000  *
    48       H          4.3240000  *   -5.734000  *    1.815000  *
    49       H          3.4990000  *   -7.311000  *    1.810000  *
    50       H          2.7020000  *   -5.887000  *    1.100000  *
    51       C          3.6460000  *   -6.403000  *    4.376000  *
    52       H          3.1920000  *   -6.177000  *    5.341000  *
    53       H          3.7850000  *   -7.480000  *    4.283000  *
    54       H          4.6120000  *   -5.904000  *    4.302000  *
 


          CARTESIAN COORDINATES 

    NO.       ATOM         X         Y         Z

     1         C        0.0020   -0.0040    0.0020
     2         C        0.7410   -0.5150    1.2400
     3         C        0.7230   -2.0250    1.2560
     4         C       -0.3070   -2.7060    0.7220
     5         C       -0.3160   -4.2130    0.7550
     6         C        0.6210   -4.7150    1.8250
     7         C        1.5960   -3.9160    2.2970
     8         C        2.5320   -4.3980    3.3800
     9         C        2.7300   -5.9100    3.2540
    10         C        1.3620   -6.5910    3.3630
    11         C        0.4510   -6.0270    2.3070
    12         O       -0.4480   -6.7140    1.8640
    13         O        1.7600   -2.6720    1.8150
    14         C       -1.3920   -2.0410    0.1200
    15         O       -2.3110   -2.6900   -0.3390
    16         C       -1.4340   -0.5380    0.0370
    17         H        1.7730   -0.1650    1.2170
    18         H        0.2510   -0.1370    2.1370
    19         H       -1.3260   -4.5640    0.9690
    20         H        3.4940   -3.8960    3.2770
    21         H        2.1060   -4.1680    4.3560
    22         H        1.4760   -7.6650    3.2110
    23         H        0.9390   -6.4040    4.3490
    24         H       -1.9510   -0.1390    0.9090
    25         H       -1.9580   -0.2370   -0.8700
    26         C        0.1250   -4.7450   -0.5840
    27         C       -0.7270   -5.5540   -1.3230
    28         C       -0.3220   -6.0430   -2.5560
    29         C        0.9350   -5.7230   -3.0460
    30         H       -0.9830   -6.6720   -3.1320
    31         C        1.7830   -4.9140   -2.3030
    32         C        1.3750   -4.4230   -1.0780
    33         H        2.7620   -4.6650   -2.6850
    34         H        2.0360   -3.7940   -0.5020
    35         O       -1.9590   -5.8650   -0.8400
    36         H       -2.6510   -5.2400   -1.0950
    37         O        1.3350   -6.2000   -4.2540
    38         H        1.1150   -5.6230   -4.9980
    39         C       -0.0190    1.5260    0.0100
    40         H        1.0040    1.9030    0.0030
    41         H       -0.5460    1.8870   -0.8730
    42         H       -0.5290    1.8770    0.9070
    43         C        0.7090   -0.5010   -1.2600
    44         H        1.7320   -0.1260   -1.2760
    45         H        0.7230   -1.5910   -1.2640
    46         H        0.1760   -0.1420   -2.1410
    47         C        3.3590   -6.2340    1.8970
    48         H        4.3240   -5.7340    1.8150
    49         H        3.4990   -7.3110    1.8100
    50         H        2.7020   -5.8870    1.1000
    51         C        3.6460   -6.4030    4.3760
    52         H        3.1920   -6.1770    5.3410
    53         H        3.7850   -7.4800    4.2830
    54         H        4.6120   -5.9040    4.3020

 General Reference for PM6:
 "Optimization of Parameters for Semiempirical Methods V: Modification of NDDO Approximations
 and Application to 70 Elements", J. J. P. Stewart, J. Mol. Mod., 13, 1173-1213 (2007)
 URL: http://www.springerlink.com/content/ar33482301010477/fulltext.pdf

           Empirical Formula: C23 H26 O5  =    54 atoms



      MOLECULAR POINT GROUP   :   C1  


      RHF CALCULATION, NO. OF DOUBLY OCCUPIED LEVELS =   74

      Geometry optimization using EF
  SCF CRITERION =    0.1000E-04

          DIAGONAL MATRIX USED AS START HESSIAN

 CYCLE:     1 TIME:   0.257 TIME LEFT: 16.53W  GRAD.:   186.289 HEAT:-194.6184
 CYCLE:     2 TIME:   0.147 TIME LEFT: 16.53W  GRAD.:   181.517 HEAT:-202.4032
 CYCLE:     3 TIME:   0.145 TIME LEFT: 16.53W  GRAD.:   174.760 HEAT:-208.0516
 CYCLE:     4 TIME:   0.147 TIME LEFT: 16.53W  GRAD.:   302.686 HEAT:-196.0206
 CYCLE:     5 TIME:   0.146 TIME LEFT: 16.53W  GRAD.:   201.194 HEAT:-206.4782
 CYCLE:     6 TIME:   0.152 TIME LEFT: 16.53W  GRAD.:   269.007 HEAT:-202.4618
 CYCLE:     7 TIME:   0.150 TIME LEFT: 16.53W  GRAD.:   317.940 HEAT:-197.0966
 CYCLE:     8 TIME:   0.147 TIME LEFT: 16.53W  GRAD.:   189.072 HEAT:-209.1373
 CYCLE:     9 TIME:   0.146 TIME LEFT: 16.53W  GRAD.:   301.942 HEAT:-199.5940
 CYCLE:    10 TIME:   0.146 TIME LEFT: 16.53W  GRAD.:   304.970 HEAT:-200.9466
 CYCLE:    11 TIME:   0.146 TIME LEFT: 16.53W  GRAD.:   244.497 HEAT:-204.6004
 CYCLE:    12 TIME:   0.146 TIME LEFT: 16.53W  GRAD.:   274.296 HEAT:-203.6680
 CYCLE:    13 TIME:   0.150 TIME LEFT: 16.53W  GRAD.:   277.707 HEAT:-202.4653
 CYCLE:    14 TIME:   0.147 TIME LEFT: 16.53W  GRAD.:   271.811 HEAT:-202.6439
 CYCLE:    15 TIME:   0.149 TIME LEFT: 16.53W  GRAD.:   192.895 HEAT:-208.4151
 CYCLE:    16 TIME:   0.144 TIME LEFT: 16.53W  GRAD.:   262.819 HEAT:-205.0113
 CYCLE:    17 TIME:   0.149 TIME LEFT: 16.53W  GRAD.:   262.510 HEAT:-202.5596
 CYCLE:    18 TIME:   0.146 TIME LEFT: 16.53W  GRAD.:   284.392 HEAT:-204.2438
 CYCLE:    19 TIME:   0.147 TIME LEFT: 16.53W  GRAD.:   231.239 HEAT:-206.3374
 CYCLE:    20 TIME:   0.146 TIME LEFT: 16.53W  GRAD.:   265.273 HEAT:-204.4580
 CYCLE:    21 TIME:   0.165 TIME LEFT: 16.53W  GRAD.:   251.205 HEAT:-205.4952
 CYCLE:    22 TIME:   0.150 TIME LEFT: 16.53W  GRAD.:   253.123 HEAT:-206.5024
 CYCLE:    23 TIME:   0.147 TIME LEFT: 16.53W  GRAD.:   291.169 HEAT:-201.1533
 CYCLE:    24 TIME:   0.158 TIME LEFT: 16.53W  GRAD.:   220.970 HEAT:-207.9989
 CYCLE:    25 TIME:   0.163 TIME LEFT: 16.53W  GRAD.:   236.365 HEAT:-208.1756
 CYCLE:    26 TIME:   0.156 TIME LEFT: 16.53W  GRAD.:   181.671 HEAT:-212.0628
 CYCLE:    27 TIME:   0.158 TIME LEFT: 16.53W  GRAD.:   238.223 HEAT:-207.3497
 CYCLE:    28 TIME:   0.144 TIME LEFT: 16.53W  GRAD.:   242.044 HEAT:-206.7496
 CYCLE:    29 TIME:   0.154 TIME LEFT: 16.53W  GRAD.:   229.817 HEAT:-207.6531
 CYCLE:    30 TIME:   0.146 TIME LEFT: 16.53W  GRAD.:   236.557 HEAT:-208.6465
 CYCLE:    31 TIME:   0.157 TIME LEFT: 16.53W  GRAD.:   150.709 HEAT:-212.9030
 CYCLE:    32 TIME:   0.144 TIME LEFT: 16.53W  GRAD.:   244.227 HEAT:-208.3789
 CYCLE:    33 TIME:   0.155 TIME LEFT: 16.53W  GRAD.:   147.047 HEAT:-214.2644
 CYCLE:    34 TIME:   0.152 TIME LEFT: 16.53W  GRAD.:   195.918 HEAT:-211.6022
 CYCLE:    35 TIME:   0.156 TIME LEFT: 16.53W  GRAD.:   157.604 HEAT:-213.7863
 CYCLE:    36 TIME:   0.148 TIME LEFT: 16.53W  GRAD.:   180.495 HEAT:-212.9988
 CYCLE:    37 TIME:   0.155 TIME LEFT: 16.53W  GRAD.:   157.716 HEAT:-213.0236
 CYCLE:    38 TIME:   0.164 TIME LEFT: 16.53W  GRAD.:   149.172 HEAT:-215.4349
 CYCLE:    39 TIME:   0.151 TIME LEFT: 16.53W  GRAD.:   170.970 HEAT:-211.4550
 CYCLE:    40 TIME:   0.147 TIME LEFT: 16.53W  GRAD.:   139.874 HEAT:-216.8306
 CYCLE:    41 TIME:   0.145 TIME LEFT: 16.53W  GRAD.:   184.286 HEAT:-210.5089
 CYCLE:    42 TIME:   0.149 TIME LEFT: 16.53W  GRAD.:   153.134 HEAT:-215.8999
 CYCLE:    43 TIME:   0.155 TIME LEFT: 16.53W  GRAD.:   178.210 HEAT:-213.2657
 CYCLE:    44 TIME:   0.144 TIME LEFT: 16.53W  GRAD.:   182.886 HEAT:-213.2842
 CYCLE:    45 TIME:   0.156 TIME LEFT: 16.53W  GRAD.:   172.940 HEAT:-214.5549
 CYCLE:    46 TIME:   0.145 TIME LEFT: 16.53W  GRAD.:   175.386 HEAT:-213.2772
 CYCLE:    47 TIME:   0.145 TIME LEFT: 16.53W  GRAD.:   205.777 HEAT:-212.9151
 CYCLE:    48 TIME:   0.151 TIME LEFT: 16.53W  GRAD.:   126.685 HEAT:-216.9109
 CYCLE:    49 TIME:   0.144 TIME LEFT: 16.53W  GRAD.:   199.675 HEAT:-213.3003
 CYCLE:    50 TIME:   0.147 TIME LEFT: 16.53W  GRAD.:   115.841 HEAT:-218.6936
 CYCLE:    51 TIME:   0.144 TIME LEFT: 16.53W  GRAD.:   206.746 HEAT:-213.5622
 CYCLE:    52 TIME:   0.147 TIME LEFT: 16.53W  GRAD.:    95.872 HEAT:-220.6214
 CYCLE:    53 TIME:   0.143 TIME LEFT: 16.53W  GRAD.:   198.397 HEAT:-212.9967
 CYCLE:    54 TIME:   0.151 TIME LEFT: 16.53W  GRAD.:    81.327 HEAT:-222.0805
 CYCLE:    55 TIME:   0.144 TIME LEFT: 16.53W  GRAD.:   192.939 HEAT:-212.4215
 CYCLE:    56 TIME:   0.148 TIME LEFT: 16.53W  GRAD.:    55.092 HEAT:-223.5594
 CYCLE:    57 TIME:   0.143 TIME LEFT: 16.53W  GRAD.:   169.519 HEAT:-213.0615
 CYCLE:    58 TIME:   0.151 TIME LEFT: 16.53W  GRAD.:    42.644 HEAT:-224.3136
 CYCLE:    59 TIME:   0.145 TIME LEFT: 16.53W  GRAD.:   173.886 HEAT:-212.0604
 CYCLE:    60 TIME:   0.144 TIME LEFT: 16.53W  GRAD.:    34.403 HEAT:-224.7802
 CYCLE:    61 TIME:   0.145 TIME LEFT: 16.53W  GRAD.:   155.871 HEAT:-215.6497
 CYCLE:    62 TIME:   0.145 TIME LEFT: 16.53W  GRAD.:    30.670 HEAT:-225.0605
 CYCLE:    63 TIME:   0.138 TIME LEFT: 16.53W  GRAD.:   128.896 HEAT:-218.7235
 CYCLE:    64 TIME:   0.138 TIME LEFT: 16.53W  GRAD.:    36.468 HEAT:-225.0476
 CYCLE:    65 TIME:   0.145 TIME LEFT: 16.53W  GRAD.:   139.847 HEAT:-217.0708
 CYCLE:    66 TIME:   0.144 TIME LEFT: 16.53W  GRAD.:    29.325 HEAT:-225.4387
 CYCLE:    67 TIME:   0.142 TIME LEFT: 16.53W  GRAD.:   142.091 HEAT:-217.9997
 CYCLE:    68 TIME:   0.144 TIME LEFT: 16.53W  GRAD.:    24.111 HEAT:-225.6850
 CYCLE:    69 TIME:   0.143 TIME LEFT: 16.53W  GRAD.:   115.659 HEAT:-220.8217
 CYCLE:    70 TIME:   0.144 TIME LEFT: 16.53W  GRAD.:    17.737 HEAT:-226.1148
 CYCLE:    71 TIME:   0.135 TIME LEFT: 16.53W  GRAD.:    66.837 HEAT:-224.2761
 CYCLE:    72 TIME:   0.135 TIME LEFT: 16.53W  GRAD.:    17.355 HEAT:-226.3101
 CYCLE:    73 TIME:   0.139 TIME LEFT: 16.53W  GRAD.:    76.493 HEAT:-224.2311
 CYCLE:    74 TIME:   0.135 TIME LEFT: 16.53W  GRAD.:    13.059 HEAT:-226.6778
 CYCLE:    75 TIME:   0.136 TIME LEFT: 16.53W  GRAD.:    58.515 HEAT:-225.6522
 CYCLE:    76 TIME:   0.135 TIME LEFT: 16.53W  GRAD.:    18.212 HEAT:-227.0204
 CYCLE:    77 TIME:   0.144 TIME LEFT: 16.53W  GRAD.:    66.425 HEAT:-225.5892
 CYCLE:    78 TIME:   0.138 TIME LEFT: 16.53W  GRAD.:    31.656 HEAT:-227.3238
 CYCLE:    79 TIME:   0.144 TIME LEFT: 16.53W  GRAD.:    83.362 HEAT:-224.5156
 CYCLE:    80 TIME:   0.143 TIME LEFT: 16.53W  GRAD.:    30.342 HEAT:-228.2975
 CYCLE:    81 TIME:   0.144 TIME LEFT: 16.53W  GRAD.:   121.533 HEAT:-222.6186
 CYCLE:    82 TIME:   0.139 TIME LEFT: 16.53W  GRAD.:    22.956 HEAT:-228.9875
 CYCLE:    83 TIME:   0.143 TIME LEFT: 16.53W  GRAD.:    62.288 HEAT:-227.5760
 CYCLE:    84 TIME:   0.135 TIME LEFT: 16.53W  GRAD.:    26.369 HEAT:-229.3349
 CYCLE:    85 TIME:   0.143 TIME LEFT: 16.53W  GRAD.:    85.692 HEAT:-226.2340
 CYCLE:    86 TIME:   0.136 TIME LEFT: 16.53W  GRAD.:    21.326 HEAT:-229.8000
 CYCLE:    87 TIME:   0.144 TIME LEFT: 16.53W  GRAD.:   100.596 HEAT:-225.3982
 CYCLE:    88 TIME:   0.143 TIME LEFT: 16.53W  GRAD.:    14.783 HEAT:-229.9869
 CYCLE:    89 TIME:   0.136 TIME LEFT: 16.53W  GRAD.:    59.823 HEAT:-228.2931
 CYCLE:    90 TIME:   0.133 TIME LEFT: 16.53W  GRAD.:    20.770 HEAT:-229.8819
 CYCLE:    91 TIME:   0.143 TIME LEFT: 16.53W  GRAD.:    80.296 HEAT:-226.9992
 CYCLE:    92 TIME:   0.142 TIME LEFT: 16.53W  GRAD.:    16.937 HEAT:-230.1092
 CYCLE:    93 TIME:   0.135 TIME LEFT: 16.53W  GRAD.:    79.848 HEAT:-227.3875
 CYCLE:    94 TIME:   0.135 TIME LEFT: 16.53W  GRAD.:     8.941 HEAT:-230.1720
 CYCLE:    95 TIME:   0.133 TIME LEFT: 16.53W  GRAD.:    35.543 HEAT:-229.8281
 CYCLE:    96 TIME:   0.130 TIME LEFT: 16.53W  GRAD.:    10.061 HEAT:-230.3258
 CYCLE:    97 TIME:   0.134 TIME LEFT: 16.53W  GRAD.:    33.477 HEAT:-229.6817
 CYCLE:    98 TIME:   0.134 TIME LEFT: 16.53W  GRAD.:     5.816 HEAT:-230.3612
 CYCLE:    99 TIME:   0.134 TIME LEFT: 16.53W  GRAD.:    23.048 HEAT:-230.1654
 CYCLE:   100 TIME:   0.129 TIME LEFT: 16.53W  GRAD.:     5.622 HEAT:-230.3871
 CYCLE:   101 TIME:   0.134 TIME LEFT: 16.53W  GRAD.:    15.172 HEAT:-230.2062
 CYCLE:   102 TIME:   0.129 TIME LEFT: 16.53W  GRAD.:     3.738 HEAT:-230.4036
 CYCLE:   103 TIME:   0.130 TIME LEFT: 16.53W  GRAD.:    16.589 HEAT:-230.3221
 CYCLE:   104 TIME:   0.131 TIME LEFT: 16.53W  GRAD.:     2.288 HEAT:-230.4163
 CYCLE:   105 TIME:   0.133 TIME LEFT: 16.53W  GRAD.:     6.174 HEAT:-230.4077
 CYCLE:   106 TIME:   0.124 TIME LEFT: 16.53W  GRAD.:     3.298 HEAT:-230.4363
 CYCLE:   107 TIME:   0.134 TIME LEFT: 16.53W  GRAD.:    11.226 HEAT:-230.4007
 CYCLE:   108 TIME:   0.129 TIME LEFT: 16.53W  GRAD.:     4.977 HEAT:-230.4656
 CYCLE:   109 TIME:   0.133 TIME LEFT: 16.53W  GRAD.:     9.981 HEAT:-230.4318
 CYCLE:   110 TIME:   0.129 TIME LEFT: 16.53W  GRAD.:     5.230 HEAT:-230.4793
 CYCLE:   111 TIME:   0.133 TIME LEFT: 16.53W  GRAD.:    17.119 HEAT:-230.3717
 CYCLE:   112 TIME:   0.129 TIME LEFT: 16.53W  GRAD.:     2.064 HEAT:-230.4996
 CYCLE:   113 TIME:   0.134 TIME LEFT: 16.53W  GRAD.:     3.589 HEAT:-230.5127
 CYCLE:   114 TIME:   0.128 TIME LEFT: 16.53W  GRAD.:     3.729 HEAT:-230.5324
 CYCLE:   115 TIME:   0.134 TIME LEFT: 16.53W  GRAD.:    12.410 HEAT:-230.5439
 CYCLE:   116 TIME:   0.134 TIME LEFT: 16.53W  GRAD.:    11.398 HEAT:-230.5796
 CYCLE:   117 TIME:   0.133 TIME LEFT: 16.53W  GRAD.:     8.322 HEAT:-230.6532
 CYCLE:   118 TIME:   0.133 TIME LEFT: 16.53W  GRAD.:     9.221 HEAT:-230.6524
 CYCLE:   119 TIME:   0.134 TIME LEFT: 16.53W  GRAD.:    16.269 HEAT:-230.6879
 CYCLE:   120 TIME:   0.133 TIME LEFT: 16.53W  GRAD.:     6.774 HEAT:-230.8238
 CYCLE:   121 TIME:   0.128 TIME LEFT: 16.53W  GRAD.:     6.299 HEAT:-230.8275
 CYCLE:   122 TIME:   0.133 TIME LEFT: 16.53W  GRAD.:     6.657 HEAT:-230.8264
 CYCLE:   123 TIME:   0.133 TIME LEFT: 16.53W  GRAD.:    18.702 HEAT:-230.6160
 CYCLE:   124 TIME:   0.133 TIME LEFT: 16.53W  GRAD.:     5.080 HEAT:-230.8428
 CYCLE:   125 TIME:   0.134 TIME LEFT: 16.53W  GRAD.:     4.970 HEAT:-230.8716
 CYCLE:   126 TIME:   0.133 TIME LEFT: 16.53W  GRAD.:     6.166 HEAT:-230.8985
 CYCLE:   127 TIME:   0.133 TIME LEFT: 16.53W  GRAD.:     5.607 HEAT:-230.9098
 CYCLE:   128 TIME:   0.132 TIME LEFT: 16.53W  GRAD.:     6.985 HEAT:-230.9239
 CYCLE:   129 TIME:   0.128 TIME LEFT: 16.53W  GRAD.:     5.289 HEAT:-230.9863
 CYCLE:   130 TIME:   0.132 TIME LEFT: 16.53W  GRAD.:     7.861 HEAT:-231.0789
 CYCLE:   131 TIME:   0.133 TIME LEFT: 16.53W  GRAD.:     7.563 HEAT:-231.1465
 CYCLE:   132 TIME:   0.132 TIME LEFT: 16.53W  GRAD.:     5.891 HEAT:-231.2147
 CYCLE:   133 TIME:   0.133 TIME LEFT: 16.53W  GRAD.:     7.626 HEAT:-231.3011
 CYCLE:   134 TIME:   0.128 TIME LEFT: 16.53W  GRAD.:     5.008 HEAT:-231.3568
 CYCLE:   135 TIME:   0.132 TIME LEFT: 16.53W  GRAD.:     3.933 HEAT:-231.4167
 CYCLE:   136 TIME:   0.132 TIME LEFT: 16.53W  GRAD.:     4.877 HEAT:-231.4707
 CYCLE:   137 TIME:   0.132 TIME LEFT: 16.53W  GRAD.:     3.989 HEAT:-231.5116
 CYCLE:   138 TIME:   0.133 TIME LEFT: 16.53W  GRAD.:     3.976 HEAT:-231.5518
 CYCLE:   139 TIME:   0.133 TIME LEFT: 16.53W  GRAD.:     2.866 HEAT:-231.5746
 CYCLE:   140 TIME:   0.128 TIME LEFT: 16.53W  GRAD.:     2.583 HEAT:-231.5988
 CYCLE:   141 TIME:   0.132 TIME LEFT: 16.53W  GRAD.:     2.247 HEAT:-231.6071
 CYCLE:   142 TIME:   0.133 TIME LEFT: 16.53W  GRAD.:     2.299 HEAT:-231.6262
 CYCLE:   143 TIME:   0.132 TIME LEFT: 16.53W  GRAD.:     1.863 HEAT:-231.6221
 CYCLE:   144 TIME:   0.132 TIME LEFT: 16.53W  GRAD.:     2.474 HEAT:-231.6528
 CYCLE:   145 TIME:   0.132 TIME LEFT: 16.53W  GRAD.:     2.412 HEAT:-231.6518
 CYCLE:   146 TIME:   0.132 TIME LEFT: 16.53W  GRAD.:     2.058 HEAT:-231.6907
 CYCLE:   147 TIME:   0.131 TIME LEFT: 16.53W  GRAD.:     1.354 HEAT:-231.6781
 CYCLE:   148 TIME:   0.132 TIME LEFT: 16.53W  GRAD.:     0.878 HEAT:-231.6756
 CYCLE:   149 TIME:   0.132 TIME LEFT: 16.53W  GRAD.:     0.952 HEAT:-231.6905
 CYCLE:   150 TIME:   0.132 TIME LEFT: 16.53W  GRAD.:     0.702 HEAT:-231.6763
 CYCLE:   151 TIME:   0.133 TIME LEFT: 16.53W  GRAD.:     0.511 HEAT:-231.6712
 CYCLE:   152 TIME:   0.132 TIME LEFT: 16.53W  GRAD.:     0.711 HEAT:-231.7029
 CYCLE:   153 TIME:   0.132 TIME LEFT: 16.53W  GRAD.:     0.637 HEAT:-231.6933
 CYCLE:   154 TIME:   0.132 TIME LEFT: 16.53W  GRAD.:     0.795 HEAT:-231.7141
 CYCLE:   155 TIME:   0.132 TIME LEFT: 16.53W  GRAD.:     0.757 HEAT:-231.7119
 CYCLE:   156 TIME:   0.133 TIME LEFT: 16.53W  GRAD.:     0.797 HEAT:-231.7155
 CYCLE:   157 TIME:   0.132 TIME LEFT: 16.53W  GRAD.:     0.581 HEAT:-231.7210
 CYCLE:   158 TIME:   0.132 TIME LEFT: 16.53W  GRAD.:     0.495 HEAT:-231.7168
 CYCLE:   159 TIME:   0.131 TIME LEFT: 16.53W  GRAD.:     0.374 HEAT:-231.7193
 CYCLE:   160 TIME:   0.132 TIME LEFT: 16.53W  GRAD.:     0.391 HEAT:-231.7314
 CYCLE:   161 TIME:   0.127 TIME LEFT: 16.53W  GRAD.:     0.318 HEAT:-231.7321
 CYCLE:   162 TIME:   0.132 TIME LEFT: 16.53W  GRAD.:     0.396 HEAT:-231.7244
 CYCLE:   163 TIME:   0.131 TIME LEFT: 16.53W  GRAD.:     0.340 HEAT:-231.7160
 CYCLE:   164 TIME:   0.127 TIME LEFT: 16.53W  GRAD.:     0.272 HEAT:-231.7155
 CYCLE:   165 TIME:   0.128 TIME LEFT: 16.53W  GRAD.:     0.286 HEAT:-231.7160
 CYCLE:   166 TIME:   0.127 TIME LEFT: 16.53W  GRAD.:     0.327 HEAT:-231.7170
 CYCLE:   167 TIME:   0.132 TIME LEFT: 16.53W  GRAD.:     0.439 HEAT:-231.7246
 CYCLE:   168 TIME:   0.132 TIME LEFT: 16.53W  GRAD.:     0.429 HEAT:-231.7352
 CYCLE:   169 TIME:   0.131 TIME LEFT: 16.53W  GRAD.:     0.381 HEAT:-231.7371
 CYCLE:   170 TIME:   0.133 TIME LEFT: 16.53W  GRAD.:     0.480 HEAT:-231.7387
 CYCLE:   171 TIME:   0.131 TIME LEFT: 16.53W  GRAD.:     0.470 HEAT:-231.7361
 CYCLE:   172 TIME:   0.133 TIME LEFT: 16.53W  GRAD.:     0.452 HEAT:-231.7502
 CYCLE:   173 TIME:   0.131 TIME LEFT: 16.53W  GRAD.:     0.297 HEAT:-231.7369
 CYCLE:   174 TIME:   0.127 TIME LEFT: 16.53W  GRAD.:     0.308 HEAT:-231.7535
 CYCLE:   175 TIME:   0.127 TIME LEFT: 16.53W  GRAD.:     0.306 HEAT:-231.7525
 CYCLE:   176 TIME:   0.131 TIME LEFT: 16.53W  GRAD.:     0.414 HEAT:-231.7629
 CYCLE:   177 TIME:   0.128 TIME LEFT: 16.53W  GRAD.:     0.278 HEAT:-231.7513
 CYCLE:   178 TIME:   0.127 TIME LEFT: 16.53W  GRAD.:     0.213 HEAT:-231.7522
 CYCLE:   179 TIME:   0.132 TIME LEFT: 16.53W  GRAD.:     0.362 HEAT:-231.7371
 CYCLE:   180 TIME:   0.128 TIME LEFT: 16.53W  GRAD.:     0.227 HEAT:-231.7265
 CYCLE:   181 TIME:   0.131 TIME LEFT: 16.53W  GRAD.:     0.235 HEAT:-231.7322
 CYCLE:   182 TIME:   0.127 TIME LEFT: 16.53W  GRAD.:     0.259 HEAT:-231.7312
 CYCLE:   183 TIME:   0.127 TIME LEFT: 16.53W  GRAD.:     0.216 HEAT:-231.7315
 CYCLE:   184 TIME:   0.127 TIME LEFT: 16.53W  GRAD.:     0.208 HEAT:-231.7211
 CYCLE:   185 TIME:   0.127 TIME LEFT: 16.53W  GRAD.:     0.167 HEAT:-231.7421
 CYCLE:   186 TIME:   0.127 TIME LEFT: 16.53W  GRAD.:     0.210 HEAT:-231.7104
 CYCLE:   187 TIME:   0.128 TIME LEFT: 16.53W  GRAD.:     0.179 HEAT:-231.7180
 CYCLE:   188 TIME:   0.131 TIME LEFT: 16.53W  GRAD.:     0.361 HEAT:-231.7228
 CYCLE:   189 TIME:   0.125 TIME LEFT: 16.53W  GRAD.:     0.215 HEAT:-231.7225
 CYCLE:   190 TIME:   0.126 TIME LEFT: 16.53W  GRAD.:     0.211 HEAT:-231.7262
 CYCLE:   191 TIME:   0.127 TIME LEFT: 16.53W  GRAD.:     0.241 HEAT:-231.7150
 CYCLE:   192 TIME:   0.122 TIME LEFT: 16.53W  GRAD.:     0.157 HEAT:-231.7149
 CYCLE:   193 TIME:   0.127 TIME LEFT: 16.53W  GRAD.:     0.121 HEAT:-231.7150

     RMS GRADIENT =  0.12128  IS LESS THAN CUTOFF =  0.15000



 -------------------------------------------------------------------------------
 PM6 T=31535708 DUMP=4320 XYZ EPS=78.40 RSOLV=1.30 MULLIK SYBYL +
 CHARGE=0 RELSCF=0.1 LET DDMIN=0.0 GNORM=0.15
 SJ000002349-1_T001S001I001C01: Geometry optimization step



     GEOMETRY OPTIMISED USING EIGENVECTOR FOLLOWING (EF).     
     SCF FIELD WAS ACHIEVED                                   


                               PM6     CALCULATION
                                                       MOPAC2009 (Version: 9.015L)
                                                       Tue Sep  6 16:26:12 2011




          FINAL HEAT OF FORMATION =       -231.71505 KCAL =    -969.49575 KJ
          VAN DER WAALS AREA      =        367.36 SQUARE ANGSTROMS


          TOTAL ENERGY            =      -4629.83985 EV
          ELECTRONIC ENERGY       =      -8809.10052 EV  POINT GROUP:     C1  
          CORE-CORE REPULSION     =       4179.26067 EV
          DIELECTRIC ENERGY       =         -1.41763 EV
          COSMO AREA              =        367.36 SQUARE ANGSTROMS
          COSMO VOLUME            =        459.99 CUBIC ANGSTROMS

          IONIZATION POTENTIAL    =          9.147390 EV
          HOMO LUMO ENERGIES (EV) =         -9.147 -0.958
          NO. OF FILLED LEVELS    =         74
          MOLECULAR WEIGHT        =        382.455

          MOLECULAR DIMENSIONS (Angstroms)

            Atom       Atom       Distance
            H    52    H    38    10.70466
            H    41    H    49    10.28938
            H    44    H    36     5.58941


          SCF CALCULATIONS        =        195
          COMPUTATION TIME        =         26.866 SECONDS




   ATOM   CHEMICAL          X               Y              Z
  NUMBER   SYMBOL      (ANGSTROMS)     (ANGSTROMS)    (ANGSTROMS)
 
     1       C         -0.0271583  *    0.050100  *    0.045734  *
     2       C          0.7576970  *   -0.551271  *    1.249590  *
     3       C          0.6303407  *   -2.025601  *    1.281393  *
     4       C         -0.3460189  *   -2.766102  *    0.701809  *
     5       C         -0.3049603  *   -4.276964  *    0.709320  *
     6       C          0.6300750  *   -4.759406  *    1.791830  *
     7       C          1.5587401  *   -3.946630  *    2.345752  *
     8       C          2.5837021  *   -4.318991  *    3.346477  *
     9       C          2.8667000  *   -5.850601  *    3.307945  *
    10       C          1.5187495  *   -6.613113  *    3.290181  *
    11       C          0.5409158  *   -6.158156  *    2.239746  *
    12       O         -0.3177028  *   -6.924952  *    1.820428  *
    13       O          1.6560355  *   -2.589468  *    2.032395  *
    14       C         -1.4607906  *   -2.082945  *    0.045003  *
    15       O         -2.4234776  *   -2.700664  *   -0.420584  *
    16       C         -1.4419640  *   -0.582590  *   -0.001316  *
    17       H          1.8246123  *   -0.232374  *    1.215202  *
    18       H          0.3818126  *   -0.120910  *    2.210396  *
    19       H         -1.3400639  *   -4.664697  *    0.938254  *
    20       H          3.5276954  *   -3.745983  *    3.200056  *
    21       H          2.2415739  *   -4.014976  *    4.365464  *
    22       H          1.7077203  *   -7.704024  *    3.188075  *
    23       H          1.0208304  *   -6.520999  *    4.284892  *
    24       H         -2.0553062  *   -0.200885  *    0.850476  *
    25       H         -1.9858823  *   -0.217761  *   -0.900929  *
    26       C          0.1154555  *   -4.800519  *   -0.649813  *
    27       C         -0.8573267  *   -5.224310  *   -1.583800  *
    28       C         -0.5164940  *   -5.797783  *   -2.816275  *
    29       C          0.8457102  *   -5.906919  *   -3.116153  *
    30       H         -1.2872389  *   -6.132273  *   -3.505392  *
    31       C          1.8469254  *   -5.457757  *   -2.239262  *
    32       C          1.4623715  *   -4.908535  *   -1.016194  *
    33       H          2.8948375  *   -5.543449  *   -2.515740  *
    34       H          2.2359937  *   -4.558973  *   -0.325667  *
    35       O         -2.1977658  *   -5.116369  *   -1.347891  *
    36       H         -2.4027233  *   -4.441117  *   -0.588357  *
    37       O          1.2886817  *   -6.449582  *   -4.290792  *
    38       H          0.5356322  *   -6.769177  *   -4.876057  *
    39       C         -0.1563629  *    1.564349  *    0.246588  *
    40       H          0.8262487  *    2.049478  *    0.302673  *
    41       H         -0.6969791  *    2.035431  *   -0.584347  *
    42       H         -0.6957935  *    1.818895  *    1.166922  *
    43       C          0.7211336  *   -0.244762  *   -1.260790  *
    44       H          1.7255620  *    0.196728  *   -1.259371  *
    45       H          0.8411152  *   -1.319233  *   -1.438080  *
    46       H          0.1938204  *    0.170268  *   -2.128774  *
    47       C          3.6819268  *   -6.197706  *    2.055011  *
    48       H          4.6377815  *   -5.659342  *    2.032975  *
    49       H          3.9208627  *   -7.268118  *    2.015879  *
    50       H          3.1496104  *   -5.951903  *    1.130188  *
    51       C          3.6520485  *   -6.238139  *    4.566875  *
    52       H          3.1039976  *   -6.005273  *    5.487809  *
    53       H          3.8732220  *   -7.312837  *    4.587900  *
    54       H          4.6138143  *   -5.713006  *    4.620663  *

           Empirical Formula: C23 H26 O5  =    54 atoms



      MOLECULAR POINT GROUP   :   C1  


                  EIGENVALUES  
 -32.28120 -31.92092 -31.78465 -31.11357 -30.93829 -30.57279 -30.23247 -29.83257
 -28.82019 -27.85176 -26.62867 -26.37835 -26.06495 -25.54284 -25.13567 -24.54751
 -24.47619 -24.05613 -23.38805 -22.43843 -21.99305 -21.70233 -21.19690 -20.38420
 -19.73988 -19.36915 -18.48458 -17.78967 -17.53313 -17.42228 -17.03024 -16.92789
 -16.41724 -16.17614 -16.16070 -16.07459 -15.85709 -15.56084 -15.45926 -15.31069
 -15.22391 -15.10695 -14.86661 -14.83153 -14.70259 -14.50417 -14.34423 -14.29902
 -14.17645 -14.06470 -13.79472 -13.58600 -13.47529 -13.40861 -13.23456 -13.11991
 -13.04273 -12.97949 -12.93267 -12.79398 -12.33558 -12.29511 -12.28270 -12.08933
 -12.02080 -11.98961 -11.88452 -11.79349 -10.98550 -10.81698 -10.63139  -9.92190
  -9.79791  -9.14739  -0.95809  -0.35682  -0.09959   0.04892   0.51615   0.97128
   1.11632   1.91688   2.05381   2.25940   2.35029   2.55826   2.80107   2.88022
   3.12039   3.16344   3.27630   3.40681   3.45293   3.55829   3.62565   3.67390
   3.77016   3.85863   3.89903   3.94560   3.99483   4.09246   4.15840   4.20813
   4.25874   4.33184   4.44779   4.57055   4.61286   4.73170   4.80123   5.10271
   5.12026   5.13029   5.18780   5.25633   5.26398   5.31840   5.53779   5.63887
   5.73475   5.77357   5.77711   5.78527   5.79251   5.79969   5.81512   5.83628
   5.87531   5.90665   6.03943   6.05131   6.10148   6.16656   6.75137   6.75660
   6.85728   6.86298


              NET ATOMIC CHARGES AND DIPOLE CONTRIBUTIONS

  ATOM NO.   TYPE          CHARGE      No. of ELECS.   s-Pop       p-Pop       
    1          C           0.327819        3.6722     1.06685     2.60533
    2          C          -0.461221        4.4612     1.11095     3.35027
    3          C           0.470109        3.5299     1.10739     2.42250
    4          C          -0.502389        4.5024     1.11642     3.38597
    5          C           0.141485        3.8585     1.05217     2.80634
    6          C          -0.478194        4.4782     1.11801     3.36019
    7          C           0.444371        3.5556     1.10762     2.44801
    8          C          -0.454740        4.4547     1.11007     3.34467
    9          C           0.326559        3.6734     1.06666     2.60678
   10          C          -0.545920        4.5459     1.12385     3.42207
   11          C           0.671887        3.3281     1.09028     2.23783
   12          O          -0.628278        6.6283     1.85211     4.77617
   13          O          -0.363458        6.3635     1.83611     4.52735
   14          C           0.673867        3.3261     1.09281     2.23332
   15          O          -0.644946        6.6449     1.85156     4.79338
   16          C          -0.537732        4.5377     1.12246     3.41527
   17          H           0.211815        0.7882     0.78818
   18          H           0.217507        0.7825     0.78249
   19          H           0.141481        0.8585     0.85852
   20          H           0.210662        0.7893     0.78934
   21          H           0.213104        0.7869     0.78690
   22          H           0.206875        0.7931     0.79313
   23          H           0.214370        0.7856     0.78563
   24          H           0.216592        0.7834     0.78341
   25          H           0.210924        0.7891     0.78908
   26          C          -0.313053        4.3131     1.10229     3.21076
   27          C           0.439961        3.5600     1.07599     2.48405
   28          C          -0.540102        4.5401     1.11023     3.42987
   29          C           0.434940        3.5651     1.07461     2.49045
   30          H           0.211767        0.7882     0.78823
   31          C          -0.431819        4.4318     1.10459     3.32723
   32          C           0.062102        3.9379     1.10372     2.83418
   33          H           0.195309        0.8047     0.80469
   34          H           0.150755        0.8492     0.84924
   35          O          -0.554238        6.5542     1.81645     4.73779
   36          H           0.382763        0.6172     0.61724
   37          O          -0.518076        6.5181     1.80624     4.71184
   38          H           0.374150        0.6259     0.62585
   39          C          -0.556260        4.5563     1.09588     3.46038
   40          H           0.172585        0.8274     0.82742
   41          H           0.174201        0.8258     0.82580
   42          H           0.170584        0.8294     0.82942
   43          C          -0.558969        4.5590     1.09637     3.46260
   44          H           0.172481        0.8275     0.82752
   45          H           0.165887        0.8341     0.83411
   46          H           0.173035        0.8270     0.82697
   47          C          -0.557008        4.5570     1.09635     3.46066
   48          H           0.172695        0.8273     0.82730
   49          H           0.173746        0.8263     0.82625
   50          H           0.160380        0.8396     0.83962
   51          C          -0.555691        4.5557     1.09591     3.45978
   52          H           0.170092        0.8299     0.82991
   53          H           0.173327        0.8267     0.82667
   54          H           0.171910        0.8281     0.82809
 DIPOLE           X         Y         Z       TOTAL
 POINT-CHG.     8.936     9.175     7.392    14.788
 HYBRID        -0.610    -0.044    -0.227     0.653
 SUM            8.326     9.131     7.165    14.284


          CARTESIAN COORDINATES 

    NO.       ATOM               X         Y         Z

     1         C                 -0.0272    0.0501    0.0457
     2         C                  0.7577   -0.5513    1.2496
     3         C                  0.6303   -2.0256    1.2814
     4         C                 -0.3460   -2.7661    0.7018
     5         C                 -0.3050   -4.2770    0.7093
     6         C                  0.6301   -4.7594    1.7918
     7         C                  1.5587   -3.9466    2.3458
     8         C                  2.5837   -4.3190    3.3465
     9         C                  2.8667   -5.8506    3.3079
    10         C                  1.5187   -6.6131    3.2902
    11         C                  0.5409   -6.1582    2.2397
    12         O                 -0.3177   -6.9250    1.8204
    13         O                  1.6560   -2.5895    2.0324
    14         C                 -1.4608   -2.0829    0.0450
    15         O                 -2.4235   -2.7007   -0.4206
    16         C                 -1.4420   -0.5826   -0.0013
    17         H                  1.8246   -0.2324    1.2152
    18         H                  0.3818   -0.1209    2.2104
    19         H                 -1.3401   -4.6647    0.9383
    20         H                  3.5277   -3.7460    3.2001
    21         H                  2.2416   -4.0150    4.3655
    22         H                  1.7077   -7.7040    3.1881
    23         H                  1.0208   -6.5210    4.2849
    24         H                 -2.0553   -0.2009    0.8505
    25         H                 -1.9859   -0.2178   -0.9009
    26         C                  0.1155   -4.8005   -0.6498
    27         C                 -0.8573   -5.2243   -1.5838
    28         C                 -0.5165   -5.7978   -2.8163
    29         C                  0.8457   -5.9069   -3.1162
    30         H                 -1.2872   -6.1323   -3.5054
    31         C                  1.8469   -5.4578   -2.2393
    32         C                  1.4624   -4.9085   -1.0162
    33         H                  2.8948   -5.5434   -2.5157
    34         H                  2.2360   -4.5590   -0.3257
    35         O                 -2.1978   -5.1164   -1.3479
    36         H                 -2.4027   -4.4411   -0.5884
    37         O                  1.2887   -6.4496   -4.2908
    38         H                  0.5356   -6.7692   -4.8761
    39         C                 -0.1564    1.5643    0.2466
    40         H                  0.8262    2.0495    0.3027
    41         H                 -0.6970    2.0354   -0.5843
    42         H                 -0.6958    1.8189    1.1669
    43         C                  0.7211   -0.2448   -1.2608
    44         H                  1.7256    0.1967   -1.2594
    45         H                  0.8411   -1.3192   -1.4381
    46         H                  0.1938    0.1703   -2.1288
    47         C                  3.6819   -6.1977    2.0550
    48         H                  4.6378   -5.6593    2.0330
    49         H                  3.9209   -7.2681    2.0159
    50         H                  3.1496   -5.9519    1.1302
    51         C                  3.6520   -6.2381    4.5669
    52         H                  3.1040   -6.0053    5.4878
    53         H                  3.8732   -7.3128    4.5879
    54         H                  4.6138   -5.7130    4.6207


          ATOMIC ORBITAL ELECTRON POPULATIONS

   1.06685   0.84643   0.89163   0.86728   1.11095   1.19982   0.99145   1.15900
   1.10739   0.77079   0.89045   0.76126   1.11642   1.10113   1.05631   1.22853
   1.05217   1.03057   0.88208   0.89369   1.11801   1.13660   1.06472   1.15887
   1.10762   0.87337   0.74213   0.83251   1.11007   1.11959   1.11114   1.11394
   1.06666   0.86754   0.83428   0.90496   1.12385   1.09275   1.18154   1.14779
   1.09028   0.72879   0.80648   0.70256   1.85211   1.48888   1.64649   1.64080
   1.83611   1.51951   1.35147   1.65637   1.09281   0.75403   0.85783   0.62146
   1.85156   1.48141   1.75059   1.56138   1.12246   1.13106   1.05281   1.23140
   0.78818   0.78249   0.85852   0.78934   0.78690   0.79313   0.78563   0.78341
   0.78908   1.10229   1.00003   1.18125   1.02948   1.07599   0.75501   0.83842
   0.89062   1.11023   1.06593   1.26015   1.10380   1.07461   0.90321   0.81471
   0.77253   0.78823   1.10459   1.09904   1.18651   1.04167   1.10372   0.99218
   0.87715   0.96486   0.80469   0.84924   1.81645   1.35945   1.70343   1.67491
   0.61724   1.80624   1.53341   1.77200   1.40644   0.62585   1.09588   1.19936
   1.06394   1.19708   0.82742   0.82580   0.82942   1.09637   1.16982   1.18887
   1.10392   0.82752   0.83411   0.82697   1.09635   1.16033   1.19592   1.10441
   0.82730   0.82625   0.83962   1.09591   1.16327   1.19261   1.10390   0.82991
   0.82667   0.82809

           MULLIKEN POPULATION ANALYSIS



        MULLIKEN POPULATIONS AND CHARGES

      NO.  ATOM   POPULATION      CHARGE
        1    C     3.637065      0.362935
        2    C     4.581037     -0.581037
        3    C     3.505131      0.494869
        4    C     4.546076     -0.546076
        5    C     3.851915      0.148085
        6    C     4.520391     -0.520391
        7    C     3.532889      0.467111
        8    C     4.573179     -0.573179
        9    C     3.638408      0.361592
       10    C     4.672041     -0.672041
       11    C     3.280565      0.719435
       12    O     6.654192     -0.654192
       13    O     6.402836     -0.402836
       14    C     3.280652      0.719348
       15    O     6.674489     -0.674489
       16    C     4.663717     -0.663717
       17    H     0.733184      0.266816
       18    H     0.728260      0.271740
       19    H     0.818867      0.181133
       20    H     0.734438      0.265562
       21    H     0.733453      0.266547
       22    H     0.738800      0.261200
       23    H     0.732864      0.267136
       24    H     0.730410      0.269590
       25    H     0.734030      0.265970
       26    C     4.338406     -0.338406
       27    C     3.531428      0.468572
       28    C     4.618406     -0.618406
       29    C     3.540972      0.459028
       30    H     0.724580      0.275420
       31    C     4.500449     -0.500449
       32    C     3.962437      0.037563
       33    H     0.745080      0.254920
       34    H     0.802886      0.197114
       35    O     6.600937     -0.600937
       36    H     0.583494      0.416506
       37    O     6.567652     -0.567652
       38    H     0.593338      0.406662
       39    C     4.702723     -0.702723
       40    H     0.779884      0.220116
       41    H     0.777952      0.222048
       42    H     0.782076      0.217924
       43    C     4.703648     -0.703648
       44    H     0.780028      0.219972
       45    H     0.787565      0.212435
       46    H     0.779386      0.220614
       47    C     4.700508     -0.700508
       48    H     0.779719      0.220281
       49    H     0.778530      0.221470
       50    H     0.794749      0.205251
       51    C     4.701890     -0.701890
       52    H     0.782700      0.217300
       53    H     0.779025      0.220975
       54    H     0.780662      0.219338



 TOTAL CPU TIME:            26.90 SECONDS

 == MOPAC DONE ==
 *******************************************************************************
 ** Site#:  958            For non-commercial use only         Version 9.015L **
 *******************************************************************************
 ** Cite this work as: MOPAC2009, James J. P. Stewart, Stewart Computational  **
 ** Chemistry, Version 9.015L web: HTTP://OpenMOPAC.net                       **
 *******************************************************************************
 **                                                                           **
 **                                MOPAC2009                                  **
 **                                                                           **
 *******************************************************************************

                            PM6 CALCULATION RESULTS


 *******************************************************************************
 *  CALCULATION DONE:                                Tue Sep  6 16:26:12 2011  *
 *  PM6      - The PM6 Hamiltonian to be used
 *  GEO-OK   - OVERRIDE INTERATOMIC DISTANCE CHECK
 *
 *
 *
 *                 CHARGE ON SYSTEM =     0
 *
 *
 *
 *  EPS= 78.400
 *  RSOLV=  1.300
 *  OLDGEO   - PREVIOUS GEOMETRY TO BE USED
 *  T=       - A TIME OF 172800.0 SECONDS REQUESTED
 *  DUMP=N   - RESTART FILE WRITTEN EVERY  4320.000 SECONDS
 *  RELSCF   - DEFAULT SCF CRITERION MULTIPLIED BY   0.100    
 *             (DEFAULT SCFCRT= 0.00010)
 *  THERMO   - THERMODYNAMIC QUANTITIES TO BE CALCULATED
 *******************************************************************************
 PM6 DUMP=4320 RELSCF=0.1 THERMO EPS=78.40 RSOLV=1.30 +
 OLDGEO GEO-OK CHARGE=0
 SJ000002349-1_T001S001I001C01: Free energy calculation

   ATOM   CHEMICAL          X               Y              Z
  NUMBER   SYMBOL      (ANGSTROMS)     (ANGSTROMS)    (ANGSTROMS)
 
     1       C         -0.0271583  *    0.050100  *    0.045734  *
     2       C          0.7576970  *   -0.551271  *    1.249590  *
     3       C          0.6303407  *   -2.025601  *    1.281393  *
     4       C         -0.3460189  *   -2.766102  *    0.701809  *
     5       C         -0.3049603  *   -4.276964  *    0.709320  *
     6       C          0.6300750  *   -4.759406  *    1.791830  *
     7       C          1.5587401  *   -3.946630  *    2.345752  *
     8       C          2.5837021  *   -4.318991  *    3.346477  *
     9       C          2.8667000  *   -5.850601  *    3.307945  *
    10       C          1.5187495  *   -6.613113  *    3.290181  *
    11       C          0.5409158  *   -6.158156  *    2.239746  *
    12       O         -0.3177028  *   -6.924952  *    1.820428  *
    13       O          1.6560355  *   -2.589468  *    2.032395  *
    14       C         -1.4607906  *   -2.082945  *    0.045003  *
    15       O         -2.4234776  *   -2.700664  *   -0.420584  *
    16       C         -1.4419640  *   -0.582590  *   -0.001316  *
    17       H          1.8246123  *   -0.232374  *    1.215202  *
    18       H          0.3818126  *   -0.120910  *    2.210396  *
    19       H         -1.3400639  *   -4.664697  *    0.938254  *
    20       H          3.5276954  *   -3.745983  *    3.200056  *
    21       H          2.2415739  *   -4.014976  *    4.365464  *
    22       H          1.7077203  *   -7.704024  *    3.188075  *
    23       H          1.0208304  *   -6.520999  *    4.284892  *
    24       H         -2.0553062  *   -0.200885  *    0.850476  *
    25       H         -1.9858823  *   -0.217761  *   -0.900929  *
    26       C          0.1154555  *   -4.800519  *   -0.649813  *
    27       C         -0.8573267  *   -5.224310  *   -1.583800  *
    28       C         -0.5164940  *   -5.797783  *   -2.816275  *
    29       C          0.8457102  *   -5.906919  *   -3.116153  *
    30       H         -1.2872389  *   -6.132273  *   -3.505392  *
    31       C          1.8469254  *   -5.457757  *   -2.239262  *
    32       C          1.4623715  *   -4.908535  *   -1.016194  *
    33       H          2.8948375  *   -5.543449  *   -2.515740  *
    34       H          2.2359937  *   -4.558973  *   -0.325667  *
    35       O         -2.1977658  *   -5.116369  *   -1.347891  *
    36       H         -2.4027233  *   -4.441117  *   -0.588357  *
    37       O          1.2886817  *   -6.449582  *   -4.290792  *
    38       H          0.5356322  *   -6.769177  *   -4.876057  *
    39       C         -0.1563629  *    1.564349  *    0.246588  *
    40       H          0.8262487  *    2.049478  *    0.302673  *
    41       H         -0.6969791  *    2.035431  *   -0.584347  *
    42       H         -0.6957935  *    1.818895  *    1.166922  *
    43       C          0.7211336  *   -0.244762  *   -1.260790  *
    44       H          1.7255620  *    0.196728  *   -1.259371  *
    45       H          0.8411152  *   -1.319233  *   -1.438080  *
    46       H          0.1938204  *    0.170268  *   -2.128774  *
    47       C          3.6819268  *   -6.197706  *    2.055011  *
    48       H          4.6377815  *   -5.659342  *    2.032975  *
    49       H          3.9208627  *   -7.268118  *    2.015879  *
    50       H          3.1496104  *   -5.951903  *    1.130188  *
    51       C          3.6520485  *   -6.238139  *    4.566875  *
    52       H          3.1039976  *   -6.005273  *    5.487809  *
    53       H          3.8732220  *   -7.312837  *    4.587900  *
    54       H          4.6138143  *   -5.713006  *    4.620663  *
 


          CARTESIAN COORDINATES 

    NO.       ATOM         X         Y         Z

     1         C       -0.0272    0.0501    0.0457
     2         C        0.7577   -0.5513    1.2496
     3         C        0.6303   -2.0256    1.2814
     4         C       -0.3460   -2.7661    0.7018
     5         C       -0.3050   -4.2770    0.7093
     6         C        0.6301   -4.7594    1.7918
     7         C        1.5587   -3.9466    2.3458
     8         C        2.5837   -4.3190    3.3465
     9         C        2.8667   -5.8506    3.3079
    10         C        1.5187   -6.6131    3.2902
    11         C        0.5409   -6.1582    2.2397
    12         O       -0.3177   -6.9250    1.8204
    13         O        1.6560   -2.5895    2.0324
    14         C       -1.4608   -2.0829    0.0450
    15         O       -2.4235   -2.7007   -0.4206
    16         C       -1.4420   -0.5826   -0.0013
    17         H        1.8246   -0.2324    1.2152
    18         H        0.3818   -0.1209    2.2104
    19         H       -1.3401   -4.6647    0.9383
    20         H        3.5277   -3.7460    3.2001
    21         H        2.2416   -4.0150    4.3655
    22         H        1.7077   -7.7040    3.1881
    23         H        1.0208   -6.5210    4.2849
    24         H       -2.0553   -0.2009    0.8505
    25         H       -1.9859   -0.2178   -0.9009
    26         C        0.1155   -4.8005   -0.6498
    27         C       -0.8573   -5.2243   -1.5838
    28         C       -0.5165   -5.7978   -2.8163
    29         C        0.8457   -5.9069   -3.1162
    30         H       -1.2872   -6.1323   -3.5054
    31         C        1.8469   -5.4578   -2.2393
    32         C        1.4624   -4.9085   -1.0162
    33         H        2.8948   -5.5434   -2.5157
    34         H        2.2360   -4.5590   -0.3257
    35         O       -2.1978   -5.1164   -1.3479
    36         H       -2.4027   -4.4411   -0.5884
    37         O        1.2887   -6.4496   -4.2908
    38         H        0.5356   -6.7692   -4.8761
    39         C       -0.1564    1.5643    0.2466
    40         H        0.8262    2.0495    0.3027
    41         H       -0.6970    2.0354   -0.5843
    42         H       -0.6958    1.8189    1.1669
    43         C        0.7211   -0.2448   -1.2608
    44         H        1.7256    0.1967   -1.2594
    45         H        0.8411   -1.3192   -1.4381
    46         H        0.1938    0.1703   -2.1288
    47         C        3.6819   -6.1977    2.0550
    48         H        4.6378   -5.6593    2.0330
    49         H        3.9209   -7.2681    2.0159
    50         H        3.1496   -5.9519    1.1302
    51         C        3.6520   -6.2381    4.5669
    52         H        3.1040   -6.0053    5.4878
    53         H        3.8732   -7.3128    4.5879
    54         H        4.6138   -5.7130    4.6207

 General Reference for PM6:
 "Optimization of Parameters for Semiempirical Methods V: Modification of NDDO Approximations
 and Application to 70 Elements", J. J. P. Stewart, J. Mol. Mod., 13, 1173-1213 (2007)
 URL: http://www.springerlink.com/content/ar33482301010477/fulltext.pdf

           Empirical Formula: C23 H26 O5  =    54 atoms



      MOLECULAR POINT GROUP   :   C1  


      RHF CALCULATION, NO. OF DOUBLY OCCUPIED LEVELS =   74

  SCF CRITERION =    0.1000E-04


          HEAT OF FORMATION =    -231.714991 KCALS/MOLE


          INTERNAL COORDINATE DERIVATIVES

   NUMBER  ATOM       BOND         ANGLE      DIHEDRAL

     1       C
     2       C      0.001620
     3       C     -0.004667    -0.011824
     4       C     -0.006115     0.064062    -0.025367
     5       C     -0.060124    -0.083152     0.006203
     6       C      0.021973     0.008078     0.042255
     7       C     -0.038877    -0.027564    -0.037203
     8       C     -0.055513     0.074786    -0.037674
     9       C      0.093862    -0.028413     0.003417
    10       C     -0.053225     0.007816    -0.011631
    11       C     -0.020252     0.014719    -0.017910
    12       O     -0.073650    -0.003810     0.039738
    13       O      0.041601     0.000181    -0.068635
    14       C      0.103269    -0.031015     0.110589
    15       O     -0.064652     0.005644    -0.009776
    16       C      0.063329    -0.028796    -0.094893
    17       H      0.023201     0.116257     0.106003
    18       H     -0.069169     0.027251     0.036474
    19       H      0.025241    -0.002247     0.000726
    20       H      0.026822    -0.017701     0.014744
    21       H     -0.018096     0.009921     0.010501
    22       H      0.036962     0.006189    -0.052601
    23       H      0.053783    -0.006404     0.029057
    24       H     -0.035159     0.004784    -0.014406
    25       H      0.003597     0.006820     0.025331
    26       C      0.020998    -0.046274    -0.030968
    27       C      0.026302     0.001534     0.013419
    28       C      0.028519    -0.023982     0.046250
    29       C      0.091139    -0.050281     0.098707
    30       H     -0.038552    -0.067958    -0.099589
    31       C     -0.075264     0.009424     0.061476
    32       C      0.080127    -0.014693     0.016529
    33       H      0.079911     0.048920    -0.007454
    34       H     -0.059209    -0.017128    -0.084665
    35       O     -0.023001     0.018284     0.007887
    36       H      0.014880    -0.002662     0.012043
    37       O     -0.174113     0.048714     0.049143
    38       H      0.028718    -0.009949    -0.051530
    39       C     -0.328159    -0.011916     0.003557
    40       H      0.292712    -0.006465    -0.043218
    41       H     -0.016525    -0.031295    -0.008332
    42       H      0.008569    -0.000279     0.025406
    43       C      0.002935     0.028537     0.008104
    44       H     -0.001197    -0.005817    -0.001946
    45       H      0.011885    -0.009419    -0.016804
    46       H     -0.001296     0.008739     0.027760
    47       C     -0.000959    -0.017392    -0.005795
    48       H      0.030147     0.003508     0.001470
    49       H     -0.010300    -0.003042    -0.048132
    50       H     -0.016372    -0.008213     0.020401
    51       C     -0.020619    -0.016410    -0.004339
    52       H      0.010230     0.012651     0.002398
    53       H      0.014730     0.022181    -0.023319
    54       H      0.003027     0.013829     0.010141


          GRADIENT NORM =   0.68849


          TIME FOR SCF CALCULATION =    0.24

          TIME FOR DERIVATIVES     =    0.08

          MOLECULAR WEIGHT =  382.46



          ROTATIONAL CONSTANTS IN CM(-1)

          A =    0.00676865   B =    0.00546500   C =    0.00380989



           PRINCIPAL MOMENTS OF INERTIA IN UNITS OF 10**(-40)*GRAM-CM**2

          A =     4135.6503   B =     5122.1874   C =     7347.4011


          ORIENTATION OF MOLECULE IN FORCE CALCULATION

    NO.       ATOM         X         Y         Z

     1          C      -2.1473   -3.4093   -0.6074
     2          C      -0.5895   -3.4093   -0.6074
     3          C      -0.0599   -2.0271   -0.6074
     4          C      -0.7139   -0.9101   -1.0101
     5          C      -0.1041    0.4642   -0.8559
     6          C       1.3897    0.3453   -0.6737
     7          C       1.9719   -0.8175   -0.3012
     8          C       3.4053   -1.0409   -0.0080
     9          C       4.1094    0.2961    0.3717
    10          C       3.7109    1.3859   -0.6541
    11          C       2.2309    1.5335   -0.8873
    12          O       1.7703    2.5974   -1.2836
    13          O       1.2548   -2.0066   -0.1547
    14          C      -2.0468   -1.0406   -1.5993
    15          O      -2.6531   -0.0714   -2.0664
    16          C      -2.6522   -2.4118   -1.6817
    17          H      -0.2016   -3.9972    0.2559
    18          H      -0.2025   -3.9599   -1.5000
    19          H      -0.2990    1.0531   -1.7989
    20          H       3.5466   -1.7966    0.7982
    21          H       3.9030   -1.5009   -0.8959
    22          H       4.1483    2.3622   -0.3512
    23          H       4.1931    1.1716   -1.6377
    24          H      -2.4504   -2.8201   -2.7014
    25          H      -3.7623   -2.3462   -1.6400
    26          C      -0.7405    1.1965    0.3090
    27          C      -1.7888    2.1183    0.0860
    28          C      -2.3481    2.8845    1.1176
    29          C      -1.8514    2.6782    2.4092
    30          H      -3.1398    3.5998    0.9116
    31          C      -0.8427    1.7406    2.6859
    32          C      -0.3034    1.0117    1.6261
    33          H      -0.4954    1.5960    3.7059
    34          H       0.4851    0.2814    1.8324
    35          O      -2.3234    2.3369   -1.1511
    36          H      -2.1004    1.5676   -1.8093
    37          O      -2.3265    3.3712    3.4883
    38          H      -3.0348    4.0394    3.2361
    39          C      -2.6417   -4.8186   -0.9532
    40          H      -2.2906   -5.5598   -0.2243
    41          H      -3.7381   -4.8703   -0.9569
    42          H      -2.3006   -5.1499   -1.9414
    43          C      -2.6661   -2.9951    0.7757
    44          H      -2.3294   -3.6875    1.5574
    45          H      -2.3279   -1.9937    1.0641
    46          H      -3.7628   -2.9890    0.8087
    47          C       3.6858    0.7246    1.7830
    48          H       3.9426   -0.0366    2.5305
    49          H       4.1892    1.6506    2.0889
    50          H       2.6081    0.9031    1.8585
    51          C       5.6275    0.0844    0.3228
    52          H       5.9731   -0.2247   -0.6710
    53          H       6.1700    1.0030    0.5801
    54          H       5.9509   -0.6870    1.0327


    FIRST DERIVATIVES WILL BE USED IN THE CALCULATION OF SECOND DERIVATIVES

          ESTIMATED TIME TO COMPLETE CALCULATION =      105.28 SECONDS

    FOR POINT-GROUP C1   THERE ARE   1 UNIQUE SYMMETRY FUNCTIONS.

 STEP:   1 TIME =     0.24 SECS, INTEGRAL =      0.24 TIME LEFT: 172799.44
 STEP:   2 TIME =     0.23 SECS, INTEGRAL =      0.47 TIME LEFT: 172799.21
 STEP:   3 TIME =     0.23 SECS, INTEGRAL =      0.70 TIME LEFT: 172798.98
 STEP:   4 TIME =     0.23 SECS, INTEGRAL =      0.92 TIME LEFT: 172798.75
 STEP:   5 TIME =     0.24 SECS, INTEGRAL =      1.17 TIME LEFT: 172798.51
 STEP:   6 TIME =     0.23 SECS, INTEGRAL =      1.39 TIME LEFT: 172798.28
 STEP:   7 TIME =     0.24 SECS, INTEGRAL =      1.64 TIME LEFT: 172798.04
 STEP:   8 TIME =     0.24 SECS, INTEGRAL =      1.88 TIME LEFT: 172797.79
 STEP:   9 TIME =     0.23 SECS, INTEGRAL =      2.11 TIME LEFT: 172797.56
 STEP:  10 TIME =     0.23 SECS, INTEGRAL =      2.35 TIME LEFT: 172797.33
 STEP:  11 TIME =     0.23 SECS, INTEGRAL =      2.58 TIME LEFT: 172797.10
 STEP:  12 TIME =     0.24 SECS, INTEGRAL =      2.81 TIME LEFT: 172796.86
 STEP:  13 TIME =     0.24 SECS, INTEGRAL =      3.05 TIME LEFT: 172796.62
 STEP:  14 TIME =     0.24 SECS, INTEGRAL =      3.29 TIME LEFT: 172796.39
 STEP:  15 TIME =     0.23 SECS, INTEGRAL =      3.52 TIME LEFT: 172796.16
 STEP:  16 TIME =     0.23 SECS, INTEGRAL =      3.75 TIME LEFT: 172795.93
 STEP:  17 TIME =     0.24 SECS, INTEGRAL =      3.99 TIME LEFT: 172795.69
 STEP:  18 TIME =     0.24 SECS, INTEGRAL =      4.23 TIME LEFT: 172795.45
 STEP:  19 TIME =     0.24 SECS, INTEGRAL =      4.46 TIME LEFT: 172795.21
 STEP:  20 TIME =     0.23 SECS, INTEGRAL =      4.70 TIME LEFT: 172794.98
 STEP:  21 TIME =     0.23 SECS, INTEGRAL =      4.93 TIME LEFT: 172794.75
 STEP:  22 TIME =     0.24 SECS, INTEGRAL =      5.16 TIME LEFT: 172794.51
 STEP:  23 TIME =     0.23 SECS, INTEGRAL =      5.39 TIME LEFT: 172794.28
 STEP:  24 TIME =     0.23 SECS, INTEGRAL =      5.62 TIME LEFT: 172794.06
 STEP:  25 TIME =     0.23 SECS, INTEGRAL =      5.85 TIME LEFT: 172793.82
 STEP:  26 TIME =     0.23 SECS, INTEGRAL =      6.08 TIME LEFT: 172793.60
 STEP:  27 TIME =     0.23 SECS, INTEGRAL =      6.31 TIME LEFT: 172793.37
 STEP:  28 TIME =     0.23 SECS, INTEGRAL =      6.54 TIME LEFT: 172793.13
 STEP:  29 TIME =     0.23 SECS, INTEGRAL =      6.77 TIME LEFT: 172792.91
 STEP:  30 TIME =     0.22 SECS, INTEGRAL =      6.99 TIME LEFT: 172792.68
 STEP:  31 TIME =     0.23 SECS, INTEGRAL =      7.23 TIME LEFT: 172792.45
 STEP:  32 TIME =     0.24 SECS, INTEGRAL =      7.47 TIME LEFT: 172792.21
 STEP:  33 TIME =     0.23 SECS, INTEGRAL =      7.70 TIME LEFT: 172791.97
 STEP:  34 TIME =     0.23 SECS, INTEGRAL =      7.93 TIME LEFT: 172791.74
 STEP:  35 TIME =     0.23 SECS, INTEGRAL =      8.16 TIME LEFT: 172791.52
 STEP:  36 TIME =     0.23 SECS, INTEGRAL =      8.39 TIME LEFT: 172791.29
 STEP:  37 TIME =     0.23 SECS, INTEGRAL =      8.62 TIME LEFT: 172791.05
 STEP:  38 TIME =     0.23 SECS, INTEGRAL =      8.85 TIME LEFT: 172790.82
 STEP:  39 TIME =     0.23 SECS, INTEGRAL =      9.08 TIME LEFT: 172790.59
 STEP:  40 TIME =     0.24 SECS, INTEGRAL =      9.32 TIME LEFT: 172790.36
 STEP:  41 TIME =     0.23 SECS, INTEGRAL =      9.55 TIME LEFT: 172790.12
 STEP:  42 TIME =     0.24 SECS, INTEGRAL =      9.79 TIME LEFT: 172789.88
 STEP:  43 TIME =     0.23 SECS, INTEGRAL =     10.02 TIME LEFT: 172789.66
 STEP:  44 TIME =     0.23 SECS, INTEGRAL =     10.25 TIME LEFT: 172789.43
 STEP:  45 TIME =     0.23 SECS, INTEGRAL =     10.47 TIME LEFT: 172789.20
 STEP:  46 TIME =     0.23 SECS, INTEGRAL =     10.70 TIME LEFT: 172788.97
 STEP:  47 TIME =     0.23 SECS, INTEGRAL =     10.93 TIME LEFT: 172788.75
 STEP:  48 TIME =     0.23 SECS, INTEGRAL =     11.16 TIME LEFT: 172788.52
 STEP:  49 TIME =     0.22 SECS, INTEGRAL =     11.38 TIME LEFT: 172788.30
 STEP:  50 TIME =     0.22 SECS, INTEGRAL =     11.60 TIME LEFT: 172788.08
 STEP:  51 TIME =     0.22 SECS, INTEGRAL =     11.81 TIME LEFT: 172787.86
 STEP:  52 TIME =     0.22 SECS, INTEGRAL =     12.03 TIME LEFT: 172787.65
 STEP:  53 TIME =     0.22 SECS, INTEGRAL =     12.25 TIME LEFT: 172787.42
 STEP:  54 TIME =     0.22 SECS, INTEGRAL =     12.47 TIME LEFT: 172787.20
 STEP:  55 TIME =     0.22 SECS, INTEGRAL =     12.69 TIME LEFT: 172786.98
 STEP:  56 TIME =     0.22 SECS, INTEGRAL =     12.91 TIME LEFT: 172786.77
 STEP:  57 TIME =     0.22 SECS, INTEGRAL =     13.13 TIME LEFT: 172786.55
 STEP:  58 TIME =     0.22 SECS, INTEGRAL =     13.35 TIME LEFT: 172786.33
 STEP:  59 TIME =     0.22 SECS, INTEGRAL =     13.57 TIME LEFT: 172786.11
 STEP:  60 TIME =     0.22 SECS, INTEGRAL =     13.78 TIME LEFT: 172785.89
 STEP:  61 TIME =     0.22 SECS, INTEGRAL =     14.00 TIME LEFT: 172785.67
 STEP:  62 TIME =     0.22 SECS, INTEGRAL =     14.22 TIME LEFT: 172785.45
 STEP:  63 TIME =     0.22 SECS, INTEGRAL =     14.44 TIME LEFT: 172785.23
 STEP:  64 TIME =     0.22 SECS, INTEGRAL =     14.66 TIME LEFT: 172785.02
 STEP:  65 TIME =     0.22 SECS, INTEGRAL =     14.87 TIME LEFT: 172784.80
 STEP:  66 TIME =     0.22 SECS, INTEGRAL =     15.09 TIME LEFT: 172784.59
 STEP:  67 TIME =     0.22 SECS, INTEGRAL =     15.31 TIME LEFT: 172784.37
 STEP:  68 TIME =     0.22 SECS, INTEGRAL =     15.52 TIME LEFT: 172784.15
 STEP:  69 TIME =     0.22 SECS, INTEGRAL =     15.74 TIME LEFT: 172783.94
 STEP:  70 TIME =     0.22 SECS, INTEGRAL =     15.96 TIME LEFT: 172783.72
 STEP:  71 TIME =     0.22 SECS, INTEGRAL =     16.17 TIME LEFT: 172783.50
 STEP:  72 TIME =     0.22 SECS, INTEGRAL =     16.39 TIME LEFT: 172783.28
 STEP:  73 TIME =     0.22 SECS, INTEGRAL =     16.61 TIME LEFT: 172783.07
 STEP:  74 TIME =     0.22 SECS, INTEGRAL =     16.83 TIME LEFT: 172782.85
 STEP:  75 TIME =     0.23 SECS, INTEGRAL =     17.05 TIME LEFT: 172782.62
 STEP:  76 TIME =     0.24 SECS, INTEGRAL =     17.30 TIME LEFT: 172782.38
 STEP:  77 TIME =     0.24 SECS, INTEGRAL =     17.54 TIME LEFT: 172782.14
 STEP:  78 TIME =     0.24 SECS, INTEGRAL =     17.78 TIME LEFT: 172781.89
 STEP:  79 TIME =     0.24 SECS, INTEGRAL =     18.02 TIME LEFT: 172781.66
 STEP:  80 TIME =     0.24 SECS, INTEGRAL =     18.26 TIME LEFT: 172781.42
 STEP:  81 TIME =     0.24 SECS, INTEGRAL =     18.50 TIME LEFT: 172781.17
 STEP:  82 TIME =     0.23 SECS, INTEGRAL =     18.73 TIME LEFT: 172780.94
 STEP:  83 TIME =     0.23 SECS, INTEGRAL =     18.96 TIME LEFT: 172780.72
 STEP:  84 TIME =     0.25 SECS, INTEGRAL =     19.20 TIME LEFT: 172780.47
 STEP:  85 TIME =     0.24 SECS, INTEGRAL =     19.44 TIME LEFT: 172780.23
 STEP:  86 TIME =     0.23 SECS, INTEGRAL =     19.67 TIME LEFT: 172780.00
 STEP:  87 TIME =     0.24 SECS, INTEGRAL =     19.91 TIME LEFT: 172779.77
 STEP:  88 TIME =     0.23 SECS, INTEGRAL =     20.14 TIME LEFT: 172779.54
 STEP:  89 TIME =     0.22 SECS, INTEGRAL =     20.35 TIME LEFT: 172779.32
 STEP:  90 TIME =     0.22 SECS, INTEGRAL =     20.57 TIME LEFT: 172779.10
 STEP:  91 TIME =     0.24 SECS, INTEGRAL =     20.81 TIME LEFT: 172778.86
 STEP:  92 TIME =     0.24 SECS, INTEGRAL =     21.05 TIME LEFT: 172778.63
 STEP:  93 TIME =     0.23 SECS, INTEGRAL =     21.28 TIME LEFT: 172778.40
 STEP:  94 TIME =     0.22 SECS, INTEGRAL =     21.50 TIME LEFT: 172778.17
 STEP:  95 TIME =     0.23 SECS, INTEGRAL =     21.73 TIME LEFT: 172777.94
 STEP:  96 TIME =     0.25 SECS, INTEGRAL =     21.98 TIME LEFT: 172777.69
 STEP:  97 TIME =     0.23 SECS, INTEGRAL =     22.21 TIME LEFT: 172777.47
 STEP:  98 TIME =     0.22 SECS, INTEGRAL =     22.43 TIME LEFT: 172777.24
 STEP:  99 TIME =     0.21 SECS, INTEGRAL =     22.65 TIME LEFT: 172777.03
 STEP: 100 TIME =     0.22 SECS, INTEGRAL =     22.86 TIME LEFT: 172776.81
 STEP: 101 TIME =     0.22 SECS, INTEGRAL =     23.08 TIME LEFT: 172776.59
 STEP: 102 TIME =     0.22 SECS, INTEGRAL =     23.31 TIME LEFT: 172776.37
 STEP: 103 TIME =     0.23 SECS, INTEGRAL =     23.53 TIME LEFT: 172776.14
 STEP: 104 TIME =     0.23 SECS, INTEGRAL =     23.76 TIME LEFT: 172775.91
 STEP: 105 TIME =     0.23 SECS, INTEGRAL =     24.00 TIME LEFT: 172775.68
 STEP: 106 TIME =     0.23 SECS, INTEGRAL =     24.22 TIME LEFT: 172775.45
 STEP: 107 TIME =     0.23 SECS, INTEGRAL =     24.45 TIME LEFT: 172775.22
 STEP: 108 TIME =     0.22 SECS, INTEGRAL =     24.67 TIME LEFT: 172775.00
 STEP: 109 TIME =     0.22 SECS, INTEGRAL =     24.90 TIME LEFT: 172774.78
 STEP: 110 TIME =     0.23 SECS, INTEGRAL =     25.13 TIME LEFT: 172774.55
 STEP: 111 TIME =     0.23 SECS, INTEGRAL =     25.36 TIME LEFT: 172774.31
 STEP: 112 TIME =     0.22 SECS, INTEGRAL =     25.59 TIME LEFT: 172774.09
 STEP: 113 TIME =     0.22 SECS, INTEGRAL =     25.81 TIME LEFT: 172773.87
 STEP: 114 TIME =     0.22 SECS, INTEGRAL =     26.03 TIME LEFT: 172773.65
 STEP: 115 TIME =     0.23 SECS, INTEGRAL =     26.26 TIME LEFT: 172773.42
 STEP: 116 TIME =     0.23 SECS, INTEGRAL =     26.48 TIME LEFT: 172773.19
 STEP: 117 TIME =     0.22 SECS, INTEGRAL =     26.71 TIME LEFT: 172772.97
 STEP: 118 TIME =     0.22 SECS, INTEGRAL =     26.93 TIME LEFT: 172772.75
 STEP: 119 TIME =     0.22 SECS, INTEGRAL =     27.14 TIME LEFT: 172772.53
 STEP: 120 TIME =     0.22 SECS, INTEGRAL =     27.36 TIME LEFT: 172772.32
 STEP: 121 TIME =     0.21 SECS, INTEGRAL =     27.57 TIME LEFT: 172772.10
 STEP: 122 TIME =     0.22 SECS, INTEGRAL =     27.79 TIME LEFT: 172771.88
 STEP: 123 TIME =     0.22 SECS, INTEGRAL =     28.02 TIME LEFT: 172771.66
 STEP: 124 TIME =     0.21 SECS, INTEGRAL =     28.23 TIME LEFT: 172771.44
 STEP: 125 TIME =     0.22 SECS, INTEGRAL =     28.45 TIME LEFT: 172771.23
 STEP: 126 TIME =     0.21 SECS, INTEGRAL =     28.66 TIME LEFT: 172771.01
 STEP: 127 TIME =     0.22 SECS, INTEGRAL =     28.89 TIME LEFT: 172770.79
 STEP: 128 TIME =     0.22 SECS, INTEGRAL =     29.11 TIME LEFT: 172770.56
 STEP: 129 TIME =     0.22 SECS, INTEGRAL =     29.34 TIME LEFT: 172770.34
 STEP: 130 TIME =     0.22 SECS, INTEGRAL =     29.56 TIME LEFT: 172770.12
 STEP: 131 TIME =     0.21 SECS, INTEGRAL =     29.77 TIME LEFT: 172769.90
 STEP: 132 TIME =     0.21 SECS, INTEGRAL =     29.99 TIME LEFT: 172769.69
 STEP: 133 TIME =     0.22 SECS, INTEGRAL =     30.20 TIME LEFT: 172769.47
 STEP: 134 TIME =     0.21 SECS, INTEGRAL =     30.42 TIME LEFT: 172769.26
 STEP: 135 TIME =     0.21 SECS, INTEGRAL =     30.63 TIME LEFT: 172769.04
 STEP: 136 TIME =     0.21 SECS, INTEGRAL =     30.85 TIME LEFT: 172768.83
 STEP: 137 TIME =     0.22 SECS, INTEGRAL =     31.07 TIME LEFT: 172768.61
 STEP: 138 TIME =     0.22 SECS, INTEGRAL =     31.29 TIME LEFT: 172768.39
 STEP: 139 TIME =     0.23 SECS, INTEGRAL =     31.51 TIME LEFT: 172768.16
 STEP: 140 TIME =     0.22 SECS, INTEGRAL =     31.74 TIME LEFT: 172767.94
 STEP: 141 TIME =     0.22 SECS, INTEGRAL =     31.96 TIME LEFT: 172767.71
 STEP: 142 TIME =     0.22 SECS, INTEGRAL =     32.18 TIME LEFT: 172767.49
 STEP: 143 TIME =     0.22 SECS, INTEGRAL =     32.40 TIME LEFT: 172767.28
 STEP: 144 TIME =     0.22 SECS, INTEGRAL =     32.62 TIME LEFT: 172767.06
 STEP: 145 TIME =     0.22 SECS, INTEGRAL =     32.83 TIME LEFT: 172766.84
 STEP: 146 TIME =     0.21 SECS, INTEGRAL =     33.05 TIME LEFT: 172766.63
 STEP: 147 TIME =     0.22 SECS, INTEGRAL =     33.27 TIME LEFT: 172766.41
 STEP: 148 TIME =     0.22 SECS, INTEGRAL =     33.48 TIME LEFT: 172766.19
 STEP: 149 TIME =     0.22 SECS, INTEGRAL =     33.70 TIME LEFT: 172765.97
 STEP: 150 TIME =     0.22 SECS, INTEGRAL =     33.92 TIME LEFT: 172765.75
 STEP: 151 TIME =     0.22 SECS, INTEGRAL =     34.15 TIME LEFT: 172765.53
 STEP: 152 TIME =     0.23 SECS, INTEGRAL =     34.37 TIME LEFT: 172765.30
 STEP: 153 TIME =     0.22 SECS, INTEGRAL =     34.60 TIME LEFT: 172765.08
 STEP: 154 TIME =     0.22 SECS, INTEGRAL =     34.82 TIME LEFT: 172764.86
 STEP: 155 TIME =     0.21 SECS, INTEGRAL =     35.03 TIME LEFT: 172764.64
 STEP: 156 TIME =     0.22 SECS, INTEGRAL =     35.25 TIME LEFT: 172764.43
 STEP: 157 TIME =     0.22 SECS, INTEGRAL =     35.46 TIME LEFT: 172764.21
 STEP: 158 TIME =     0.21 SECS, INTEGRAL =     35.68 TIME LEFT: 172764.00
 STEP: 159 TIME =     0.21 SECS, INTEGRAL =     35.89 TIME LEFT: 172763.78
 STEP: 160 TIME =     0.21 SECS, INTEGRAL =     36.11 TIME LEFT: 172763.57
 STEP: 161 TIME =     0.22 SECS, INTEGRAL =     36.32 TIME LEFT: 172763.35
 STEP: 162 TIME =     0.21 SECS, INTEGRAL =     36.54 TIME LEFT: 172763.14

(To convert to Hartree/Bohr^2, multiply by (10^(-21) x N x a0^2)/(4.184 x 627.51) = 0.0642)


           FORCE MATRIX IN MILLIDYNES/ANGSTROM


                  C  1       C  2       C  3       C  4       C  5       C  6
 ------------------------------------------------------------------------------
     C    1  13.215067
     C    2   2.699670  11.898053
     C    3   0.825783   3.832646  15.790289
     C    4   0.118127   0.865280   7.512620  15.946577
     C    5   0.020658   0.111112   0.947559   3.506436  12.902005
     C    6   0.017420   0.029294   0.392571   0.817944   3.603530  16.081833
     C    7   0.035862   0.137670   1.660971   0.408035   0.928731   7.742470
     C    8   0.009782   0.038528   0.146322   0.029782   0.114572   0.851390
     C    9   0.003720   0.010622   0.037792   0.018060   0.020015   0.107972
     C   10   0.004668   0.009072   0.045491   0.040512   0.044575   0.748088
     C   11   0.019970   0.038754   0.355214   0.178924   0.691916   3.532142
     O   12   0.009144   0.017045   0.136099   0.072587   0.064258   1.717580
     O   13   0.072379   0.981693   3.663006   1.615878   0.265918   1.541085
     C   14   0.801525   0.207416   1.889474   3.661609   0.714110   0.173129
     O   15   0.121191   0.107456   0.463733   1.773005   0.083024   0.077305
     C   16   2.839006   0.725970   0.088316   0.758246   0.047603   0.038276
     H   17   0.590310   3.261654   0.721728   0.068643   0.015949   0.017944
     H   18   0.592109   3.186233   0.731429   0.058709   0.018978   0.012138
     H   19   0.004306   0.013601   0.044450   0.642710   3.131653   0.643101
     H   20   0.002478   0.006432   0.021492   0.011365   0.016945   0.065075
     H   21   0.002046   0.008322   0.022424   0.010496   0.018047   0.049250
     H   22   0.000864   0.001571   0.007901   0.005733   0.006522   0.051079
     H   23   0.000893   0.002026   0.009621   0.006437   0.003905   0.041363
     H   24   0.590395   0.020584   0.029771   0.047698   0.004707   0.005421
     H   25   0.603992   0.066053   0.034956   0.054482   0.008054   0.006455
     C   26   0.011258   0.026832   0.110228   0.779918   3.444216   0.734973
     C   27   0.009878   0.011050   0.023492   0.067590   0.745866   0.064908
     C   28   0.002941   0.006984   0.015032   0.023150   0.066754   0.028285
     C   29   0.008172   0.019207   0.046929   0.066707   0.101744   0.051635
     H   30   0.001385   0.002526   0.006120   0.008663   0.012590   0.007669
     C   31   0.007648   0.017435   0.047996   0.061812   0.135435   0.046644
     C   32   0.007430   0.017390   0.048708   0.057755   0.788862   0.046033
     H   33   0.001457   0.002491   0.005446   0.007193   0.012706   0.007136
     H   34   0.000971   0.001898   0.011190   0.010093   0.034610   0.029656
     O   35   0.012371   0.011153   0.033721   0.066966   0.119857   0.037825
     H   36   0.022154   0.022182   0.076238   0.099697   0.117240   0.029113
     O   37   0.006038   0.013828   0.034823   0.050231   0.078490   0.038098
     H   38   0.001175   0.002784   0.007648   0.010909   0.016491   0.008613
     C   39   3.247398   0.703151   0.055941   0.031806   0.008176   0.011132
     H   40   0.616590   0.014268   0.007480   0.005208   0.001321   0.001737
     H   41   0.621111   0.043163   0.012458   0.005601   0.001284   0.001249
     H   42   0.609524   0.016824   0.006246   0.005086   0.001457   0.002167


                  C  1       C  2       C  3       C  4       C  5       C  6
 ------------------------------------------------------------------------------
     C   43   3.206857   0.733859   0.058016   0.071345   0.011466   0.012602
     H   44   0.622288   0.015596   0.015559   0.008280   0.002336   0.002605
     H   45   0.610575   0.008441   0.047413   0.014412   0.004052   0.004499
     H   46   0.622852   0.046520   0.010887   0.007592   0.001534   0.002117
     C   47   0.002282   0.005081   0.024417   0.014669   0.012562   0.071648
     H   48   0.000644   0.001344   0.004212   0.002716   0.001913   0.008018
     H   49   0.000540   0.001030   0.003425   0.002194   0.001158   0.007481
     H   50   0.000723   0.001582   0.007605   0.004893   0.004074   0.012955
     C   51   0.002221   0.005654   0.021875   0.011446   0.007401   0.029323
     H   52   0.000605   0.001313   0.003689   0.002134   0.001385   0.004800
     H   53   0.000471   0.000675   0.002469   0.001441   0.001077   0.005134
     H   54   0.000598   0.001002   0.003272   0.001928   0.001130   0.004497


                  C  7       C  8       C  9       C 10       C 11       O 12
 ------------------------------------------------------------------------------
     C    7  15.928565
     C    8   3.857804  11.954051
     C    9   0.821119   2.714394  13.226622
     C   10   0.077831   0.729113   2.875271  11.803933
     C   11   1.786762   0.208028   0.804538   3.271812  16.154973
     O   12   0.397630   0.097297   0.117142   1.323276  10.238857  12.271456
     O   13   3.599192   0.977511   0.073880   0.080028   0.613305   0.240681
     C   14   0.355202   0.037005   0.019693   0.034239   0.173810   0.073219
     O   15   0.147763   0.016952   0.009770   0.016013   0.077854   0.032541
     C   16   0.042774   0.008558   0.004850   0.008638   0.034014   0.015083
     H   17   0.033377   0.007593   0.002668   0.003838   0.017147   0.007985
     H   18   0.022357   0.006344   0.001992   0.003298   0.014080   0.006520
     H   19   0.044251   0.015829   0.004934   0.008548   0.053087   0.019686
     H   20   0.724358   3.303150   0.585919   0.046556   0.062630   0.028356
     H   21   0.727040   3.210530   0.590089   0.020218   0.060838   0.029322
     H   22   0.022305   0.044526   0.606337   3.301316   0.691375   0.061301
     H   23   0.032883   0.017115   0.607870   3.222834   0.728315   0.085796
     H   24   0.008578   0.001476   0.001021   0.001356   0.005577   0.002507
     H   25   0.010090   0.002132   0.001086   0.001756   0.006661   0.002931
     C   26   0.088984   0.021926   0.007386   0.009793   0.038940   0.040783
     C   27   0.046144   0.016598   0.006498   0.013196   0.032636   0.022990
     C   28   0.017209   0.006995   0.003305   0.006712   0.016488   0.009136
     C   29   0.038232   0.018204   0.007164   0.014668   0.043911   0.025261
     H   30   0.005153   0.002258   0.000898   0.002442   0.006458   0.003521
     C   31   0.041314   0.017609   0.007319   0.013286   0.037270   0.021924
     C   32   0.046589   0.016396   0.005291   0.012218   0.043218   0.021979
     H   33   0.005700   0.002685   0.001705   0.002695   0.006478   0.003832
     H   34   0.027730   0.005678   0.004532   0.003907   0.013848   0.006699
     O   35   0.032748   0.011934   0.004923   0.009530   0.027752   0.017103
     H   36   0.031360   0.006150   0.002916   0.005275   0.020039   0.010295
     O   37   0.025947   0.012608   0.005058   0.010645   0.031958   0.018472
     H   38   0.005369   0.002585   0.001140   0.002305   0.007803   0.004379
     C   39   0.022036   0.005424   0.002763   0.003321   0.013286   0.006130
     H   40   0.003526   0.001160   0.000646   0.000622   0.002092   0.001067
     H   41   0.002441   0.000836   0.000463   0.000545   0.001655   0.000791
     H   42   0.003180   0.001026   0.000622   0.000606   0.002545   0.001378
     C   43   0.020795   0.004156   0.002231   0.003688   0.015054   0.006793
     H   44   0.004403   0.001093   0.000483   0.000766   0.003054   0.001493
     H   45   0.007588   0.001486   0.000842   0.001157   0.005087   0.002432
     H   46   0.003193   0.000888   0.000416   0.000713   0.002256   0.001005
     C   47   0.072596   0.748752   3.208365   0.744726   0.101691   0.053130
     H   48   0.015953   0.016302   0.620201   0.045598   0.016260   0.009608
     H   49   0.010745   0.046045   0.622345   0.014358   0.022595   0.012069
     H   50   0.043615   0.008641   0.609194   0.008774   0.047132   0.014850
     C   51   0.054384   0.700192   3.235895   0.721721   0.076986   0.058790
     H   52   0.006017   0.018344   0.610341   0.014154   0.013124   0.010826


                  C  7       C  8       C  9       C 10       C 11       O 12
 ------------------------------------------------------------------------------
     H   53   0.011435   0.042914   0.618808   0.012754   0.014411   0.010481
     H   54   0.006865   0.014851   0.618718   0.042434   0.014523   0.006944


                  O 13       C 14       O 15       C 16       H 17       H 18
 ------------------------------------------------------------------------------
     O   13   8.999787
     C   14   0.645145  15.957806
     O   15   0.269914   9.543893  11.554486
     C   16   0.079409   3.337829   1.328385  11.846648
     H   17   0.025792   0.060849   0.030596   0.046368   4.128875
     H   18   0.037928   0.065640   0.034591   0.021771   0.412673   4.069680
     H   19   0.012181   0.050905   0.010544   0.007861   0.002404   0.002788
     H   20   0.032655   0.012585   0.006123   0.003293   0.002699   0.001364
     H   21   0.036081   0.012531   0.005966   0.002918   0.003207   0.004255
     H   22   0.015180   0.005327   0.002687   0.001346   0.000670   0.000471
     H   23   0.018953   0.006499   0.003252   0.001552   0.000883   0.000698
     H   24   0.016250   0.747923   0.075582   3.263668   0.003770   0.013213
     H   25   0.020058   0.718591   0.065991   3.262626   0.008673   0.012392
     C   26   0.090471   0.049478   0.057620   0.015152   0.005642   0.007241
     C   27   0.030380   0.140999   0.183173   0.020428   0.003409   0.003267
     C   28   0.010527   0.029095   0.047078   0.007235   0.002237   0.001640
     C   29   0.023392   0.042733   0.031895   0.013841   0.004938   0.005148
[...]
 T-DIPOLE    0.9418        C 51 --  H 52          +35.2% ( 61.2%)    97.0%
 TRAVEL      0.1313        C 47 --  H 48          +13.1% ( 37.4%)    99.4%
 RED. MASS   0.3323        C 47 --  H 50           +5.7% ( 24.6%)    92.7%
 EFF. MASS   1.4582

 VIBRATION  143  143A       ATOM PAIR        ENERGY CONTRIBUTION    RADIAL
 FREQ.      2683.61        C 51 --  H 54          +57.8% ( 78.4%)    99.4%
 T-DIPOLE    0.9195        C 51 --  H 52          +21.2% ( 47.5%)    90.8%
 TRAVEL      0.1311        C 51 --  H 53           +9.6% ( 31.9%)    77.0%
 RED. MASS   0.4087        C 47 --  H 49           +6.5% ( 26.3%)    99.4%
 EFF. MASS   1.4610

 VIBRATION  144  144A       ATOM PAIR        ENERGY CONTRIBUTION    RADIAL
 FREQ.      2685.99        C 47 --  H 50          +57.7% ( 78.3%)    99.4%
 T-DIPOLE    0.9087        C 47 --  H 49          +20.0% ( 46.1%)    90.5%
 TRAVEL      0.1307        C 47 --  H 48           +9.0% ( 30.9%)    76.5%
 RED. MASS   0.4029        C 51 --  H 52           +8.0% ( 29.2%)    99.5%
 EFF. MASS   1.4693

 VIBRATION  145  145A       ATOM PAIR        ENERGY CONTRIBUTION    RADIAL
 FREQ.      2686.58        C 43 --  H 45          +59.5% ( 79.6%)    99.2%
 T-DIPOLE    0.8520        C 43 --  H 46          +26.4% ( 53.0%)    92.7%
 TRAVEL      0.1308        C 43 --  H 44           +8.7% ( 30.3%)    72.9%
 RED. MASS   0.4503        C 39 --  H 42           +2.8% ( 17.3%)    99.5%
 EFF. MASS   1.4664

 VIBRATION  146  146A       ATOM PAIR        ENERGY CONTRIBUTION    RADIAL
 FREQ.      2718.83        C  2 --  H 17          +44.9% ( 65.9%)    97.9%
 T-DIPOLE    0.7617        C  2 --  H 18          +29.9% ( 53.7%)    95.2%
 TRAVEL      0.1405        C  8 --  H 20          +12.2% ( 34.3%)    97.8%
 RED. MASS   0.3075        C  8 --  H 21           +8.5% ( 28.7%)    95.3%
 EFF. MASS   1.2564

 VIBRATION  147  147A       ATOM PAIR        ENERGY CONTRIBUTION    RADIAL
 FREQ.      2720.72        C  8 --  H 20          +40.2% ( 62.3%)    97.8%
 T-DIPOLE    1.8331        C  8 --  H 21          +28.0% ( 52.0%)    95.3%
 TRAVEL      0.1405        C  2 --  H 17          +12.0% ( 34.1%)    97.9%
 RED. MASS   0.2595        C  2 --  H 18           +7.9% ( 27.5%)    95.2%
 EFF. MASS   1.2551

 VIBRATION  148  148A       ATOM PAIR        ENERGY CONTRIBUTION    RADIAL
 FREQ.      2729.00        C 10 --  H 22          +49.7% ( 69.4%)    97.8%
 T-DIPOLE    1.1959        C 10 --  H 23          +32.3% ( 55.9%)    94.9%
 TRAVEL      0.1393        C 32 --  H 34           +6.9% ( 25.8%)   100.0%
 RED. MASS   0.3540        C  8 --  H 20           +4.7% ( 21.3%)    97.4%
 EFF. MASS   1.2741

 VIBRATION  149  149A       ATOM PAIR        ENERGY CONTRIBUTION    RADIAL
 FREQ.      2729.77        C 32 --  H 34          +86.3% ( 93.7%)   100.0%
 T-DIPOLE    0.6672        C 31 --  H 33           +3.8% ( 19.6%)    99.8%
 TRAVEL      0.1336        C 10 --  H 22           +3.4% ( 18.6%)    97.8%
 RED. MASS   0.7224        C 10 --  H 23           +2.2% ( 15.1%)    94.8%
 EFF. MASS   1.3845

 VIBRATION  150  150A       ATOM PAIR        ENERGY CONTRIBUTION    RADIAL
 FREQ.      2735.75        C 16 --  H 24          +51.6% ( 70.5%)    96.9%
 T-DIPOLE    0.9846        C 16 --  H 25          +43.2% ( 64.5%)    96.1%
 TRAVEL      0.1399        C  2 --  H 17           +1.8% ( 13.1%)    97.2%
 RED. MASS   0.4450        C  2 --  H 18           +1.5% ( 11.9%)    95.5%
 EFF. MASS   1.2595

 VIBRATION  151  151A       ATOM PAIR        ENERGY CONTRIBUTION    RADIAL
 FREQ.      2749.43        C 31 --  H 33          +50.2% ( 71.6%)   100.0%
 T-DIPOLE    1.8898        C 28 --  H 30          +46.9% ( 69.2%)   100.0%
 TRAVEL      0.1336        C 32 --  H 34           +0.8% (  9.3%)    98.4%
 RED. MASS   0.4574        C 31 --  C 32           +0.6% (  7.6%)    38.9%
 EFF. MASS   1.3740

 VIBRATION  152  152A       ATOM PAIR        ENERGY CONTRIBUTION    RADIAL
 FREQ.      2757.39        C 28 --  H 30          +50.2% ( 71.5%)   100.0%
 T-DIPOLE    0.8425        C 31 --  H 33          +43.5% ( 66.5%)   100.0%
 TRAVEL      0.1312        C 32 --  H 34           +3.7% ( 19.5%)    99.7%
 RED. MASS   0.4311        C 28 --  C 29           +0.6% (  7.8%)    30.5%
 EFF. MASS   1.4212

 VIBRATION  153  153A       ATOM PAIR        ENERGY CONTRIBUTION    RADIAL
 FREQ.      2786.45        C 39 --  H 41          +19.6% ( 42.5%)    95.8%
 T-DIPOLE    0.6395        C 39 --  H 42          +19.4% ( 42.3%)    95.7%
 TRAVEL      0.1458        C 39 --  H 40          +18.6% ( 41.4%)    95.5%
 RED. MASS   0.1671        C 43 --  H 45          +15.1% ( 37.4%)    96.1%
 EFF. MASS   1.1382        C 43 --  H 46          +13.7% ( 35.6%)    95.8%
                           C 43 --  H 44          +13.3% ( 35.1%)    95.6%

 VIBRATION  154  154A       ATOM PAIR        ENERGY CONTRIBUTION    RADIAL
 FREQ.      2786.69        C 47 --  H 49          +20.3% ( 43.3%)    96.0%
 T-DIPOLE    0.6058        C 47 --  H 50          +19.5% ( 42.4%)    95.6%
 TRAVEL      0.1458        C 47 --  H 48          +19.3% ( 42.2%)    95.6%
 RED. MASS   0.1683        C 51 --  H 53          +13.7% ( 35.5%)    95.9%
 EFF. MASS   1.1380        C 51 --  H 52          +13.5% ( 35.3%)    95.7%
                           C 51 --  H 54          +13.2% ( 35.0%)    95.7%

 VIBRATION  155  155A       ATOM PAIR        ENERGY CONTRIBUTION    RADIAL
 FREQ.      2790.64        C 51 --  H 53          +10.1% ( 30.5%)    95.6%
 T-DIPOLE    0.6241        C 43 --  H 45           +9.9% ( 30.2%)    95.7%
 TRAVEL      0.1451        C 43 --  H 46           +9.8% ( 30.0%)    95.5%
 RED. MASS   0.0835        C 51 --  H 54           +9.7% ( 29.9%)    95.3%
 EFF. MASS   1.1471

 VIBRATION  156  156A       ATOM PAIR        ENERGY CONTRIBUTION    RADIAL
 FREQ.      2790.76        C 51 --  H 53          +10.3% ( 30.8%)    95.6%
 T-DIPOLE    0.5068        C 51 --  H 54           +9.9% ( 30.2%)    95.3%
 TRAVEL      0.1451        C 51 --  H 52           +9.6% ( 29.8%)    95.5%
 RED. MASS   0.0832        C 43 --  H 45           +9.6% ( 29.7%)    95.7%
 EFF. MASS   1.1475

 SYMMETRY NUMBER FOR POINT-GROUP C1  =  1


          SYSTEM IS A GROUND STATE


                                                                                                                                                                                                                                                 
 SJ000002349-1_T001S001I001C01: Free energy calculation                                                                                                                                                                                          


          MOLECULE IS NOT LINEAR

          THERE ARE  156 GENUINE VIBRATIONS IN THIS SYSTEM
          THIS THERMODYNAMICS CALCULATION IS LIMITED TO
          MOLECULES WHICH HAVE NO INTERNAL ROTATIONS




                    CALCULATED THERMODYNAMIC PROPERTIES
                                          *
   TEMP. (K)   PARTITION FUNCTION   H.O.F.    ENTHALPY  HEAT CAPACITY ENTROPY
                                   KCAL/MOL   CAL/MOLE    CAL/K/MOL  CAL/K/MOL


 298.00  VIB.     0.7024D+10                 14915.3930    99.9900    95.1069
         ROT.     0.1407D+08                   888.2813     2.9808    35.6899
         INT.     0.9886D+17                 15803.6743   102.9708   130.7968
         TRA.     0.7231D+28                  1480.4688     4.9680    43.7144
         TOT.                     -231.715   17284.1432   107.9388   174.5111

 200.00  VIB.     0.1771D+07                  6719.3618    67.4327    62.1868
         ROT.     0.7738D+07                   596.1620     2.9808    34.5012
         INT.     0.1370D+14                  7315.5238    70.4135    96.6880
         TRA.     0.3976D+28                   993.6033     4.9680    41.7332
         TOT.                     -240.690    8309.1270    75.3815   138.4212

 210.00  VIB.     0.4125D+07                  7410.0109    70.6993    65.5559
         ROT.     0.8326D+07                   625.9700     2.9808    34.6466
         INT.     0.3434D+14                  8035.9809    73.6801   100.2025
         TRA.     0.4278D+28                  1043.2834     4.9680    41.9756
         TOT.                     -239.920    9079.2643    78.6482   142.1781

 220.00  VIB.     0.9608D+07                  8133.3982    73.9808    68.9205
         ROT.     0.8927D+07                   655.7781     2.9808    34.7853
         INT.     0.8577D+14                  8789.1763    76.9616   103.7057
         TRA.     0.4587D+28                  1092.9636     4.9680    42.2067
         TOT.                     -239.117    9882.1399    81.9296   145.9125

 230.00  VIB.     0.2238D+08                  8889.6822    77.2788    72.2817
         ROT.     0.9543D+07                   685.5862     2.9808    34.9178
         INT.     0.2136D+15                  9575.2685    80.2596   107.1995
         TRA.     0.4903D+28                  1142.6437     4.9680    42.4276
         TOT.                     -238.281   10717.9122    85.2276   149.6271

 240.00  VIB.     0.5214D+08                  9679.0291    80.5932    75.6407
         ROT.     0.1017D+08                   715.3943     2.9808    35.0447
         INT.     0.5303D+15                 10394.4235    83.5740   110.6853
         TRA.     0.5226D+28                  1192.3239     4.9680    42.6390
         TOT.                     -237.412   11586.7474    88.5420   153.3243

 250.00  VIB.     0.1214D+09                 10501.5960    83.9224    78.9981
         ROT.     0.1081D+08                   745.2024     2.9808    35.1663
         INT.     0.1313D+16                 11246.7984    86.9032   114.1644
         TRA.     0.5556D+28                  1242.0041     4.9680    42.8418
         TOT.                     -236.510   12488.8025    91.8712   157.0062

 260.00  VIB.     0.2828D+09                 11357.5166    87.2634    82.3546
         ROT.     0.1147D+08                   775.0105     2.9808    35.2832
         INT.     0.3244D+16                 12132.5271    90.2442   117.6379
         TRA.     0.5893D+28                  1291.6842     4.9680    43.0367
         TOT.                     -235.575   13424.2113    95.2122   160.6746

 270.00  VIB.     0.6587D+09                 12246.8900    90.6122    85.7108
         ROT.     0.1214D+08                   804.8186     2.9808    35.3957
         INT.     0.7996D+16                 13051.7086    93.5930   121.1065
         TRA.     0.6236D+28                  1341.3644     4.9680    43.2242
         TOT.                     -234.606   14393.0730    98.5611   164.3307

 280.00  VIB.     0.1534D+10                 13169.7722    93.9643    89.0667
         ROT.     0.1282D+08                   834.6267     2.9808    35.5041
         INT.     0.1966D+17                 14004.3989    96.9451   124.5708
         TRA.     0.6586D+28                  1391.0445     4.9680    43.4048
         TOT.                     -233.604   15395.4435   101.9132   167.9757

 290.00  VIB.     0.3572D+10                 14126.1707    97.3146    92.4225
         ROT.     0.1351D+08                   864.4348     2.9808    35.6087
         INT.     0.4826D+17                 14990.6055   100.2954   128.0312
         TRA.     0.6942D+28                  1440.7247     4.9680    43.5792
         TOT.                     -232.568   16431.3302   105.2634   171.6104

 300.00  VIB.     0.8318D+10                 15116.0409   100.6578    95.7780
         ROT.     0.1422D+08                   894.2429     2.9808    35.7098
         INT.     0.1182D+18                 16010.2838   103.6386   131.4878
         TRA.     0.7304D+28                  1490.4049     4.9680    43.7476
         TOT.                     -231.498   17500.6887   108.6066   175.2354

 310.00  VIB.     0.1937D+11                 16139.2851   103.9886    99.1329
         ROT.     0.1493D+08                   924.0510     2.9808    35.8075
         INT.     0.2892D+18                 17063.3362   106.9694   134.9404
         TRA.     0.7672D+28                  1540.0850     4.9680    43.9105
         TOT.                     -230.396   18603.4212   111.9374   178.8509

 320.00  VIB.     0.4509D+11                 17195.7534   107.3018   102.4868
         ROT.     0.1566D+08                   953.8591     2.9808    35.9022
         INT.     0.7061D+18                 18149.6126   110.2826   138.3889
         TRA.     0.8046D+28                  1589.7652     4.9680    44.0682
         TOT.                     -229.260   19739.3778   115.2506   182.4572

 330.00  VIB.     0.1050D+12                 18285.2451   110.5924   105.8390
         ROT.     0.1640D+08                   983.6672     2.9808    35.9939
         INT.     0.1722D+19                 19268.9124   113.5732   141.8329
         TRA.     0.8426D+28                  1639.4454     4.9680    44.2211
         TOT.                     -228.091   20908.3577   118.5413   186.0540

 340.00  VIB.     0.2443D+12                 19407.5119   113.8560   109.1891
         ROT.     0.1715D+08                  1013.4753     2.9808    36.0829
         INT.     0.4191D+19                 20420.9872   116.8368   145.2720
         TRA.     0.8812D+28                  1689.1255     4.9680    44.3694
         TOT.                     -226.889   22110.1127   121.8049   189.6414

 350.00  VIB.     0.5687D+12                 20562.2613   117.0883   112.5362
         ROT.     0.1791D+08                  1043.2834     2.9808    36.1693
         INT.     0.1019D+20                 21605.5447   120.0691   148.7055
         TRA.     0.9204D+28                  1738.8057     4.9680    44.5134
         TOT.                     -225.655   23344.3504   125.0371   193.2189

 360.00  VIB.     0.1323D+13                 21749.1610   120.2855   115.8796
         ROT.     0.1869D+08                  1073.0915     2.9808    36.2533
         INT.     0.2473D+20                 22822.2525   123.2663   152.1329
         TRA.     0.9601D+28                  1788.4859     4.9680    44.6534
         TOT.                     -224.388   24610.7384   128.2343   196.7862

 370.00  VIB.     0.3079D+13                 22967.8431   123.4443   119.2185
         ROT.     0.1947D+08                  1102.8996     2.9808    36.3349
         INT.     0.5995D+20                 24070.7427   126.4251   155.5534
         TRA.     0.1000D+29                  1838.1660     4.9680    44.7895
         TOT.                     -223.090   25908.9087   131.3931   200.3429

 380.00  VIB.     0.7161D+13                 24217.9082   126.5617   122.5520
         ROT.     0.2027D+08                  1132.7077     2.9808    36.4144
         INT.     0.1451D+21                 25350.6159   129.5425   158.9664
         TRA.     0.1041D+29                  1887.8462     4.9680    44.9220
         TOT.                     -221.761   27238.4621   134.5105   203.8884

 390.00  VIB.     0.1665D+14                 25498.9303   129.6353   125.8793
         ROT.     0.2107D+08                  1162.5158     2.9808    36.4919
         INT.     0.3508D+21                 26661.4461   132.6161   162.3712
         TRA.     0.1083D+29                  1937.5263     4.9680    45.0510
         TOT.                     -220.400   28598.9725   137.5841   207.4222

 400.00  VIB.     0.3870D+14                 26810.4607   132.6630   129.1997
         ROT.     0.2189D+08                  1192.3239     2.9808    36.5673
         INT.     0.8470D+21                 28002.7846   135.6438   165.7670
         TRA.     0.1125D+29                  1987.2065     4.9680    45.1768
         TOT.                     -219.009   29989.9911   140.6118   210.9438

   *: NOTE: HEATS OF FORMATION ARE RELATIVE TO THE
             ELEMENTS IN THEIR STANDARD STATE AT 298K
              (=  Standard Enthalpy of Formation).
            Heat of Formation at T is calculated as [Escf + (HT - H298.15)-.

            Hvib:  Zero-point energy is not included.
                   Wi < 100 cm-1 are not included.
            Hrot = (3/2)RT
            Htra = (3/2)RT + pV = (5/2)RT

            Heat capacity is Cp, not Cv

                 See Section 8.20 in Manual for further information.   (by TH).

           FORCE CONSTANT IN CARTESIAN COORDINATES (Millidynes/A)

    ATOM   CHEMICAL       X               Y               Z
   NUMBER   SYMBOL  FORCE CONSTANT  FORCE CONSTANT  FORCE CONSTANT

      1       C        7.296609        7.855903        7.708254
      2       C        6.902751        7.513154        6.077632
      3       C        8.268057       12.252536        3.497864
      4       C        8.832291       11.731828        3.680195
      5       C        7.903942        7.575589        6.789627
      6       C        9.834271       11.557211        3.066405
      7       C        9.707642       10.938979        3.290483
      8       C        7.592733        6.782056        6.276955
      9       C        7.914704        7.286017        7.720809
     10       C        7.208366        6.835742        6.317975
     11       C        8.700308       11.936237        4.058604
     12       O        2.742650        9.391712        1.584022
     13       O        6.327650        5.510445        1.427136
     14       C        8.488569       11.339107        4.817038
     15       O        3.674289        7.608320        2.015058
     16       C        6.629474        7.451163        6.306713
     17       H        1.120840        1.638143        2.558360
     18       H        1.082424        1.502934        2.633215
     19       H        0.884468        1.641278        3.011492
     20       H        0.783162        2.239598        2.316933
     21       H        1.408944        1.196569        2.633380
     22       H        1.241093        3.280421        0.825088
     23       H        1.339488        0.676550        3.235327
     24       H        0.558680        1.246257        3.512941
     25       H        4.031482        0.735230        0.562943
     26       C        6.714976        5.915203       10.569257
     27       C        6.668292        6.478911       10.355705
     28       C        5.949836        5.779632       10.487582
     29       C        6.745808        6.509399       10.538658
     30       H        2.410606        2.061175        0.854522
     31       C        6.101937        6.093481        9.734529
     32       C        6.045442        5.898401       10.376137
     33       H        0.926273        0.625055        3.802814
     34       H        2.330035        2.089197        1.002825
     35       O        1.965676        2.902556        6.271307
     36       H        0.403513        1.383024        1.971896
     37       O        2.834983        3.268198        4.984110
     38       H        1.781586        1.752193        0.792360
     39       C        6.378174        6.885627        6.421452
     40       H        0.893151        2.338776        2.084105
     41       H        4.106507        0.698124        0.518820
     42       H        0.877995        1.019090        3.429568
     43       C        6.413981        6.439170        6.821101
     44       H        0.874001        1.947554        2.513237
     45       H        0.881221        3.526968        0.953888
     46       H        4.113121        0.511996        0.692566
     47       C        6.475274        6.379136        6.807319
     48       H        0.718785        2.240302        2.369016
     49       H        1.285023        3.081920        0.976770
     50       H        3.994497        0.622957        0.725623
     51       C        6.947625        6.365315        6.386090
     52       H        1.084651        0.799167        3.455065
     53       H        1.610956        3.016761        0.707501
     54       H        1.043415        2.283839        2.006631



 TOTAL CPU TIME:            64.13 SECONDS

 == MOPAC DONE ==
