 *******************************************************************************
 ** Site#:  958            For non-commercial use only         Version 9.015L **
 *******************************************************************************
 ** Cite this work as: MOPAC2009, James J. P. Stewart, Stewart Computational  **
 ** Chemistry, Version 9.015L web: HTTP://OpenMOPAC.net                       **
 *******************************************************************************
 **                                                                           **
 **                                MOPAC2009                                  **
 **                                                                           **
 *******************************************************************************

                            PM6 CALCULATION RESULTS


 *******************************************************************************
 *  CALCULATION DONE:                                Wed Sep  7 01:24:46 2011  *
 *  PM6      - The PM6 Hamiltonian to be used
 *  PDBOUT   - PRINT GEOMETY IN PDB FORMAT
 *  MOZYME   - USE LOCALIZED M.O.s IN SOLVING THE SCF EQUATIONS
 *
 *
 *
 *                 CHARGE ON SYSTEM =     0
 *
 *
 *
 *  EPS= 78.400
 *  RSOLV=  1.300
 *  LET      - OVERRIDE SOME SAFETY CHECKS
 *  XYZ      - CARTESIAN COORDINATE SYSTEM TO BE USED
 *  LBFGS    - USE THE LBFGS GEOMETRY OPTIMIZER
 *  1SCF     - DO 1 SCF AND THEN STOP 
 *  T=       - A TIME OF  0.3E+08 SECONDS REQUESTED
 *  DUMP=N   - RESTART FILE WRITTEN EVERY  4320.000 SECONDS
 *  DDMIN=   - MINIMUM TRUST RADIUS  0.000 ANG/RAD
 *  GNORM=   - EXIT WHEN GRADIENT NORM DROPS BELOW .150    
 *  RELSCF   - DEFAULT SCF CRITERION MULTIPLIED BY   0.100    
 *             (DEFAULT SCFCRT= 0.00010)
 *  MULLIK   - THE MULLIKEN ANALYSIS TO BE PERFORMED
 *******************************************************************************
 PM6 T=31503366 DUMP=4320 XYZ EPS=78.40 RSOLV=1.30 MULLIK LBFGS MOZYME PDBOUT +
 CHARGE=-0 RELSCF=0.1 LET DDMIN=0.0 GNORM=0.15 1SCF
 SJ000001528-1_T001S001I001C01_001: Geometry optimization step

   ATOM   CHEMICAL          X               Y              Z
  NUMBER   SYMBOL      (ANGSTROMS)     (ANGSTROMS)    (ANGSTROMS)
 
     1       C          0.2530000  *  -26.307000  *   12.436000  *
     2       C         -1.0310000  *  -26.581000  *   12.009000  *
     3       C         -2.1160000  *  -26.202000  *   12.787000  *
     4       C         -1.9070000  *  -25.550000  *   13.995000  *
     5       C         -0.6190000  *  -25.280000  *   14.417000  *
     6       C          0.4600000  *  -25.663000  *   13.642000  *
     7       H         -1.1910000  *  -27.088000  *   11.068000  *
     8       H         -2.7490000  *  -25.253000  *   14.602000  *
     9       H         -0.4550000  *  -24.771000  *   15.356000  *
    10       H          1.4650000  *  -25.450000  *   13.975000  *
    11       N         -3.4210000  *  -26.479000  *   12.356000  *
    12       C         -3.8480000  *  -27.666000  *   11.890000  *
    13       O         -3.1730000  *  -28.668000  *   11.773000  *
    14       C         -5.2810000  *  -27.544000  *   11.543000  *
    15       C         -5.6420000  *  -26.280000  *   11.823000  *
    16       H         -5.9160000  *  -28.321000  *   11.143000  *
    17       C         -4.4390000  *  -25.600000  *   12.352000  *
    18       H         -6.6220000  *  -25.845000  *   11.691000  *
    19       O         -4.3790000  *  -24.442000  *   12.714000  *
    20       C          1.4320000  *  -26.719000  *   11.592000  *
    21       F          1.9280000  *  -27.944000  *   12.050000  *
    22       F          2.4350000  *  -25.747000  *   11.685000  *
    23       F          1.0290000  *  -26.847000  *   10.258000  *
 


          CARTESIAN COORDINATES 

    NO.       ATOM         X         Y         Z

     1         C        0.2530  -26.3070   12.4360
     2         C       -1.0310  -26.5810   12.0090
     3         C       -2.1160  -26.2020   12.7870
     4         C       -1.9070  -25.5500   13.9950
     5         C       -0.6190  -25.2800   14.4170
     6         C        0.4600  -25.6630   13.6420
     7         H       -1.1910  -27.0880   11.0680
     8         H       -2.7490  -25.2530   14.6020
     9         H       -0.4550  -24.7710   15.3560
    10         H        1.4650  -25.4500   13.9750
    11         N       -3.4210  -26.4790   12.3560
    12         C       -3.8480  -27.6660   11.8900
    13         O       -3.1730  -28.6680   11.7730
    14         C       -5.2810  -27.5440   11.5430
    15         C       -5.6420  -26.2800   11.8230
    16         H       -5.9160  -28.3210   11.1430
    17         C       -4.4390  -25.6000   12.3520
    18         H       -6.6220  -25.8450   11.6910
    19         O       -4.3790  -24.4420   12.7140
    20         C        1.4320  -26.7190   11.5920
    21         F        1.9280  -27.9440   12.0500
    22         F        2.4350  -25.7470   11.6850
    23         F        1.0290  -26.8470   10.2580

 General Reference for PM6:
 "Optimization of Parameters for Semiempirical Methods V: Modification of NDDO Approximations
 and Application to 70 Elements", J. J. P. Stewart, J. Mol. Mod., 13, 1173-1213 (2007)
 URL: http://www.springerlink.com/content/ar33482301010477/fulltext.pdf

           Empirical Formula: C11 H6 N O2 F3  =    23 atoms



      MOLECULAR POINT GROUP   :   C1  
 
   NUMBER AND TYPES OF BONDS IDENTIFIED
 
         SIGMA BONDS               24
         LONE PAIRS                14
         NORMAL PI BONDS            5
         AROMATIC RING PI BONDS     1
 

                  Ramachandran Angles
              Residue    phi    psi  omega

  
  SCF CRITERION =    0.1000E-02

 -------------------------------------------------------------------------------
 PM6 T=31503366 DUMP=4320 XYZ EPS=78.40 RSOLV=1.30 MULLIK LBFGS MOZYME PDBOUT +
 CHARGE=-0 RELSCF=0.1 LET DDMIN=0.0 GNORM=0.15 1SCF
 SJ000001528-1_T001S001I001C01_001: Geometry optimization step



     1SCF WAS SPECIFIED, SO BFGS WAS NOT USED                 
     SCF FIELD WAS ACHIEVED                                   


                               PM6     CALCULATION
                                                       MOPAC2009 (Version: 9.015L)
                                                       Wed Sep  7 01:24:46 2011




          FINAL HEAT OF FORMATION =       -162.54071 KCAL =    -680.07034 KJ
          VAN DER WAALS AREA      =        230.92 SQUARE ANGSTROMS


          TOTAL ENERGY            =      -3605.68361 EV
          ELECTRONIC ENERGY       =     -18653.76517 EV
          CORE-CORE REPULSION     =      15048.08157 EV
          DIELECTRIC ENERGY       =         -0.56488 EV
          COSMO AREA              =        230.92 SQUARE ANGSTROMS
          COSMO VOLUME            =        250.42 CUBIC ANGSTROMS

          NO. OF FILLED LEVELS    =         44
          MOLECULAR WEIGHT        =        241.169

          MOLECULAR DIMENSIONS (Angstroms)

            Atom       Atom       Distance
            F    22    H    16     8.75548
            H     9    F    23     5.67996
            O    19    F    21     4.29364


          SCF CALCULATIONS        =          2
          COMPUTATION TIME        =          0.163 SECONDS




   ATOM           CHEMICAL             X               Y              Z
  NUMBER           SYMBOL         (ANGSTROMS)     (ANGSTROMS)    (ANGSTROMS)
 
     1       C(     1  C     )    0.2530000  *  -26.307000  *   12.436000  *
     2       C(     2  C     )   -1.0310000  *  -26.581000  *   12.009000  *
     3       C(     3  C     )   -2.1160000  *  -26.202000  *   12.787000  *
     4       C(     4  C     )   -1.9070000  *  -25.550000  *   13.995000  *
     5       C(     5  C     )   -0.6190000  *  -25.280000  *   14.417000  *
     6       C(     6  C     )    0.4600000  *  -25.663000  *   13.642000  *
     7       H(     7  C     )   -1.1910000  *  -27.088000  *   11.068000  *
     8       H(     8  C     )   -2.7490000  *  -25.253000  *   14.602000  *
     9       H(     9  C     )   -0.4550000  *  -24.771000  *   15.356000  *
    10       H(    10  C     )    1.4650000  *  -25.450000  *   13.975000  *
    11       N(    11  N     )   -3.4210000  *  -26.479000  *   12.356000  *
    12       C(    12  C     )   -3.8480000  *  -27.666000  *   11.890000  *
    13       O(    13  O     )   -3.1730000  *  -28.668000  *   11.773000  *
    14       C(    14  C     )   -5.2810000  *  -27.544000  *   11.543000  *
    15       C(    15  C     )   -5.6420000  *  -26.280000  *   11.823000  *
    16       H(    16  C     )   -5.9160000  *  -28.321000  *   11.143000  *
    17       C(    17  C     )   -4.4390000  *  -25.600000  *   12.352000  *
    18       H(    18  C     )   -6.6220000  *  -25.845000  *   11.691000  *
    19       O(    19  O     )   -4.3790000  *  -24.442000  *   12.714000  *
    20       C(    20  C     )    1.4320000  *  -26.719000  *   11.592000  *
    21       F(    21  F     )    1.9280000  *  -27.944000  *   12.050000  *
    22       F(    22  F     )    2.4350000  *  -25.747000  *   11.685000  *
    23       F(    23  F     )    1.0290000  *  -26.847000  *   10.258000  *

           Empirical Formula: C11 H6 N O2 F3  =    23 atoms



              NET ATOMIC CHARGES AND DIPOLE CONTRIBUTIONS

  ATOM NO.   TYPE          CHARGE      No. of ELECS.   s-Pop       p-Pop       
    1          C          -0.131039        4.1310     1.08806     3.04298
    2          C          -0.138684        4.1387     1.10235     3.03634
    3          C           0.131284        3.8687     1.05467     2.81404
    4          C          -0.144453        4.1445     1.10914     3.03531
    5          C          -0.125568        4.1256     1.10208     3.02349
    6          C          -0.094759        4.0948     1.10303     2.99173
    7          H           0.190275        0.8097     0.80973
    8          H           0.186988        0.8130     0.81301
    9          H           0.180818        0.8192     0.81918
   10          H           0.180149        0.8199     0.81985
   11          N          -0.380659        5.3807     1.47462     3.90604
   12          C           0.610903        3.3891     1.06185     2.32725
   13          O          -0.527735        6.5277     1.85120     4.67654
   14          C          -0.216869        4.2169     1.14443     3.07244
   15          C          -0.215284        4.2153     1.14447     3.07082
   16          H           0.225664        0.7743     0.77434
   17          C           0.610664        3.3893     1.06223     2.32711
   18          H           0.225667        0.7743     0.77433
   19          O          -0.526439        6.5264     1.85184     4.67460
   20          C           0.490479        3.5095     1.17751     2.33201
   21          F          -0.177012        7.1770     1.97716     5.19985
   22          F          -0.176608        7.1766     1.97716     5.19945
   23          F          -0.177781        7.1778     1.97707     5.20071


          CARTESIAN COORDINATES 

    NO.       ATOM               X         Y         Z

     1         C                  0.2530  -26.3070   12.4360
     2         C                 -1.0310  -26.5810   12.0090
     3         C                 -2.1160  -26.2020   12.7870
     4         C                 -1.9070  -25.5500   13.9950
     5         C                 -0.6190  -25.2800   14.4170
     6         C                  0.4600  -25.6630   13.6420
     7         H                 -1.1910  -27.0880   11.0680
     8         H                 -2.7490  -25.2530   14.6020
     9         H                 -0.4550  -24.7710   15.3560
    10         H                  1.4650  -25.4500   13.9750
    11         N                 -3.4210  -26.4790   12.3560
    12         C                 -3.8480  -27.6660   11.8900
    13         O                 -3.1730  -28.6680   11.7730
    14         C                 -5.2810  -27.5440   11.5430
    15         C                 -5.6420  -26.2800   11.8230
    16         H                 -5.9160  -28.3210   11.1430
    17         C                 -4.4390  -25.6000   12.3520
    18         H                 -6.6220  -25.8450   11.6910
    19         O                 -4.3790  -24.4420   12.7140
    20         C                  1.4320  -26.7190   11.5920
    21         F                  1.9280  -27.9440   12.0500
    22         F                  2.4350  -25.7470   11.6850
    23         F                  1.0290  -26.8470   10.2580


          ATOMIC ORBITAL ELECTRON POPULATIONS

   1.08806   0.96173   1.07214   1.00911   1.10235   0.96259   1.00967   1.06407
   1.05467   0.82023   1.02736   0.96646   1.10914   1.05924   0.98375   0.99232
   1.10208   0.96227   1.00008   1.06114   1.10303   1.08115   0.94951   0.96108
   0.80973   0.81301   0.81918   0.81985   1.47462   1.15405   1.19174   1.56024
   1.06185   0.86365   0.77088   0.69271   1.85120   1.67628   1.43707   1.56319
   1.14443   1.01621   1.06186   0.99437   1.14447   1.08135   1.01274   0.97672
   0.77434   1.06223   0.83255   0.79345   0.70111   0.77433   1.85184   1.83943
   1.31344   1.52173   1.17751   0.81223   0.74632   0.77346   1.97716   1.89937
   1.41120   1.88928   1.97716   1.62087   1.60464   1.97394   1.97707   1.90724
   1.97295   1.32053

           MULLIKEN POPULATION ANALYSIS



        MULLIKEN POPULATIONS AND CHARGES

      NO.  ATOM   POPULATION      CHARGE
        1    C     4.152996     -0.152996
        2    C     4.181846     -0.181846
        3    C     3.834859      0.165141
        4    C     4.196894     -0.196894
        5    C     4.177950     -0.177950
        6    C     4.139847     -0.139847
        7    H     0.749558      0.250442
        8    H     0.753687      0.246313
        9    H     0.761937      0.238063
       10    H     0.762215      0.237785
       11    N     5.545783     -0.545783
       12    C     3.316603      0.683397
       13    O     6.546771     -0.546771
       14    C     4.282354     -0.282354
       15    C     4.280656     -0.280656
       16    H     0.705252      0.294748
       17    C     3.316960      0.683040
       18    H     0.705267      0.294733
       19    O     6.545319     -0.545319
       20    C     3.487316      0.512684
       21    F     7.185167     -0.185167
       22    F     7.184766     -0.184766
       23    F     7.185995     -0.185995



 TOTAL CPU TIME:             0.17 SECONDS

 == MOPAC DONE ==
 *******************************************************************************
 ** Site#:  958            For non-commercial use only         Version 9.015L **
 *******************************************************************************
 ** Cite this work as: MOPAC2009, James J. P. Stewart, Stewart Computational  **
 ** Chemistry, Version 9.015L web: HTTP://OpenMOPAC.net                       **
 *******************************************************************************
 **                                                                           **
 **                                MOPAC2009                                  **
 **                                                                           **
 *******************************************************************************

                            PM6 CALCULATION RESULTS


 *******************************************************************************
 *  CALCULATION DONE:                                Wed Sep  7 01:24:46 2011  *
 *  PM6      - The PM6 Hamiltonian to be used
 *  GEO-OK   - OVERRIDE INTERATOMIC DISTANCE CHECK
 *  MOZYME   - USE LOCALIZED M.O.s IN SOLVING THE SCF EQUATIONS
 *
 *
 *
 *                 CHARGE ON SYSTEM =     0
 *
 *
 *
 *  EPS= 78.400
 *  RSOLV=  1.300
 *  OLDGEO   - PREVIOUS GEOMETRY TO BE USED
 *  T=       - A TIME OF 172800.0 SECONDS REQUESTED
 *  DUMP=N   - RESTART FILE WRITTEN EVERY  4320.000 SECONDS
 *  RELSCF   - DEFAULT SCF CRITERION MULTIPLIED BY   0.100    
 *             (DEFAULT SCFCRT= 0.00010)
 *  THERMO   - THERMODYNAMIC QUANTITIES TO BE CALCULATED
 *******************************************************************************
 PM6 DUMP=4320 MOZYME RELSCF=0.1 THERMO EPS=78.40 RSOLV=1.30 +
 OLDGEO GEO-OK CHARGE=-0
 SJ000001528-1_T001S001I001C01_001: Free energy calculation

   ATOM           CHEMICAL             X               Y              Z
  NUMBER           SYMBOL         (ANGSTROMS)     (ANGSTROMS)    (ANGSTROMS)
 
     1       C(     1  C     )    0.2530000  *  -26.307000  *   12.436000  *
     2       C(     2  C     )   -1.0310000  *  -26.581000  *   12.009000  *
     3       C(     3  C     )   -2.1160000  *  -26.202000  *   12.787000  *
     4       C(     4  C     )   -1.9070000  *  -25.550000  *   13.995000  *
     5       C(     5  C     )   -0.6190000  *  -25.280000  *   14.417000  *
     6       C(     6  C     )    0.4600000  *  -25.663000  *   13.642000  *
     7       H(     7  C     )   -1.1910000  *  -27.088000  *   11.068000  *
     8       H(     8  C     )   -2.7490000  *  -25.253000  *   14.602000  *
     9       H(     9  C     )   -0.4550000  *  -24.771000  *   15.356000  *
    10       H(    10  C     )    1.4650000  *  -25.450000  *   13.975000  *
    11       N(    11  N     )   -3.4210000  *  -26.479000  *   12.356000  *
    12       C(    12  C     )   -3.8480000  *  -27.666000  *   11.890000  *
    13       O(    13  O     )   -3.1730000  *  -28.668000  *   11.773000  *
    14       C(    14  C     )   -5.2810000  *  -27.544000  *   11.543000  *
    15       C(    15  C     )   -5.6420000  *  -26.280000  *   11.823000  *
    16       H(    16  C     )   -5.9160000  *  -28.321000  *   11.143000  *
    17       C(    17  C     )   -4.4390000  *  -25.600000  *   12.352000  *
    18       H(    18  C     )   -6.6220000  *  -25.845000  *   11.691000  *
    19       O(    19  O     )   -4.3790000  *  -24.442000  *   12.714000  *
    20       C(    20  C     )    1.4320000  *  -26.719000  *   11.592000  *
    21       F(    21  F     )    1.9280000  *  -27.944000  *   12.050000  *
    22       F(    22  F     )    2.4350000  *  -25.747000  *   11.685000  *
    23       F(    23  F     )    1.0290000  *  -26.847000  *   10.258000  *
 


          CARTESIAN COORDINATES 

    NO.       ATOM         X         Y         Z

     1         C        0.2530  -26.3070   12.4360
     2         C       -1.0310  -26.5810   12.0090
     3         C       -2.1160  -26.2020   12.7870
     4         C       -1.9070  -25.5500   13.9950
     5         C       -0.6190  -25.2800   14.4170
     6         C        0.4600  -25.6630   13.6420
     7         H       -1.1910  -27.0880   11.0680
     8         H       -2.7490  -25.2530   14.6020
     9         H       -0.4550  -24.7710   15.3560
    10         H        1.4650  -25.4500   13.9750
    11         N       -3.4210  -26.4790   12.3560
    12         C       -3.8480  -27.6660   11.8900
    13         O       -3.1730  -28.6680   11.7730
    14         C       -5.2810  -27.5440   11.5430
    15         C       -5.6420  -26.2800   11.8230
    16         H       -5.9160  -28.3210   11.1430
    17         C       -4.4390  -25.6000   12.3520
    18         H       -6.6220  -25.8450   11.6910
    19         O       -4.3790  -24.4420   12.7140
    20         C        1.4320  -26.7190   11.5920
    21         F        1.9280  -27.9440   12.0500
    22         F        2.4350  -25.7470   11.6850
    23         F        1.0290  -26.8470   10.2580

 General Reference for PM6:
 "Optimization of Parameters for Semiempirical Methods V: Modification of NDDO Approximations
 and Application to 70 Elements", J. J. P. Stewart, J. Mol. Mod., 13, 1173-1213 (2007)
 URL: http://www.springerlink.com/content/ar33482301010477/fulltext.pdf

           Empirical Formula: C11 H6 N O2 F3  =    23 atoms



      MOLECULAR POINT GROUP   :   C1  
 
   NUMBER AND TYPES OF BONDS IDENTIFIED
 
         SIGMA BONDS               24
         LONE PAIRS                14
         NORMAL PI BONDS            5
         AROMATIC RING PI BONDS     1
 
  SCF CRITERION =    0.1000E-02


          HEAT OF FORMATION =    -162.540657 KCALS/MOLE


          INTERNAL COORDINATE DERIVATIVES

   NUMBER  ATOM       BOND         ANGLE      DIHEDRAL

     1       C
     2       C     10.612292
     3       C     17.996950     1.256818
     4       C    -11.009660    20.713891    -0.365858
     5       C     34.989144     0.584143     0.428359
     6       C     -4.009429   -19.187417     0.165671
     7       H      5.226013   -11.916863     0.166001
     8       H     20.159286    -2.368777    -0.534491
     9       H     -8.777987     8.524363     0.846955
    10       H     -4.981536   -10.955755    -0.134212
    11       N      5.127025    -9.014982     0.077856
    12       C     11.628646    -3.252185     1.002679
    13       O     80.323987     0.961025    -0.063835
    14       C    -45.029943    88.986056    97.160390
    15       C      5.407967     7.355228     7.885883
    16       H    -34.497602   -13.324649   -14.357636
    17       C    -34.095752    12.588346    14.605261
    18       H      2.143878     5.433821     5.837867
    19       O    -43.905045   -89.997891   -98.879485
    20       C      2.117861    -5.222165    -5.908138
    21       F      4.586070    -6.174211    -6.363114
    22       F      3.079230     6.596044    -2.090239
    23       F     -8.045964     1.855474   -69.185594


          GRADIENT NORM = 260.86030



 ** GRADIENT IS TOO LARGE TO ALLOW FORCE MATRIX TO BE CALCULATED, (LIMIT=10) **



 EITHER ADD 'LET' OR REDUCE GRADIENT
 USING 'TS' OR OTHER GEOMETRY OPTIMIZER



 TOTAL CPU TIME:             0.38 SECONDS

 == MOPAC DONE ==
