 *******************************************************************************
 ** Site#:  958            For non-commercial use only         Version 9.015L **
 *******************************************************************************
 ** Cite this work as: MOPAC2009, James J. P. Stewart, Stewart Computational  **
 ** Chemistry, Version 9.015L web: HTTP://OpenMOPAC.net                       **
 *******************************************************************************
 **                                                                           **
 **                                MOPAC2009                                  **
 **                                                                           **
 *******************************************************************************

                            PM6 CALCULATION RESULTS


 *******************************************************************************
 *  CALCULATION DONE:                                Wed Sep  7 22:24:08 2011  *
 *  PM6      - The PM6 Hamiltonian to be used
 *  PDBOUT   - PRINT GEOMETY IN PDB FORMAT
 *  MOZYME   - USE LOCALIZED M.O.s IN SOLVING THE SCF EQUATIONS
 *
 *
 *
 *                 CHARGE ON SYSTEM =     0
 *
 *
 *
 *  EPS= 78.400
 *  RSOLV=  1.300
 *  LET      - OVERRIDE SOME SAFETY CHECKS
 *  XYZ      - CARTESIAN COORDINATE SYSTEM TO BE USED
 *  LBFGS    - USE THE LBFGS GEOMETRY OPTIMIZER
 *  1SCF     - DO 1 SCF AND THEN STOP 
 *  T=       - A TIME OF  0.3E+08 SECONDS REQUESTED
 *  DUMP=N   - RESTART FILE WRITTEN EVERY  4320.000 SECONDS
 *  DDMIN=   - MINIMUM TRUST RADIUS  0.000 ANG/RAD
 *  GNORM=   - EXIT WHEN GRADIENT NORM DROPS BELOW .150    
 *  RELSCF   - DEFAULT SCF CRITERION MULTIPLIED BY   0.100    
 *             (DEFAULT SCFCRT= 0.00010)
 *  MULLIK   - THE MULLIKEN ANALYSIS TO BE PERFORMED
 *******************************************************************************
 PM6 T=31427804 DUMP=4320 XYZ EPS=78.40 RSOLV=1.30 MULLIK LBFGS MOZYME PDBOUT +
 CHARGE=0 RELSCF=0.1 LET DDMIN=0.0 GNORM=0.15 1SCF
 SJ000002349-1_T001S001I001C03_001: Geometry optimization step

   ATOM   CHEMICAL          X               Y              Z
  NUMBER   SYMBOL      (ANGSTROMS)     (ANGSTROMS)    (ANGSTROMS)
 
     1       C         -4.8260000  *  -20.341000  *   10.608000  *
     2       C         -3.8980000  *  -21.319000  *    9.887000  *
     3       C         -3.8750000  *  -22.640000  *   10.619000  *
     4       C         -4.9660000  *  -23.064000  *   11.286000  *
     5       C         -4.9360000  *  -24.383000  *   12.017000  *
     6       C         -3.5140000  *  -24.823000  *   12.263000  *
     7       C         -2.5100000  *  -24.290000  *   11.540000  *
     8       C         -1.0830000  *  -24.716000  *   11.791000  *
     9       C         -1.0500000  *  -26.176000  *   12.247000  *
    10       C         -1.8670000  *  -26.269000  *   13.538000  *
    11       C         -3.2630000  *  -25.790000  *   13.253000  *
    12       O         -4.1920000  *  -26.247000  *   13.889000  *
    13       O         -2.7530000  *  -23.377000  *   10.587000  *
    14       C         -6.1440000  *  -22.295000  *   11.319000  *
    15       O         -7.1130000  *  -22.714000  *   11.920000  *
    16       C         -6.2240000  *  -20.964000  *   10.623000  *
    17       H         -4.2570000  *  -21.475000  *    8.870000  *
    18       H         -2.8890000  *  -20.905000  *    9.856000  *
    19       H         -5.4480000  *  -24.276000  *   12.973000  *
    20       H         -0.5080000  *  -24.611000  *   10.871000  *
    21       H         -0.6480000  *  -24.085000  *   12.565000  *
    22       H         -1.8950000  *  -27.304000  *   13.880000  *
    23       H         -1.4120000  *  -25.641000  *   14.305000  *
    24       H         -6.9120000  *  -20.310000  *   11.160000  *
    25       H         -6.5730000  *  -21.105000  *    9.601000  *
    26       C         -5.6420000  *  -25.426000  *   11.190000  *
    27       C         -6.8700000  *  -25.923000  *   11.601000  *
    28       C         -7.5190000  *  -26.882000  *   10.839000  *
    29       C         -6.9390000  *  -27.343000  *    9.668000  *
    30       H         -8.4760000  *  -27.270000  *   11.158000  *
    31       C         -5.7100000  *  -26.843000  *    9.260000  *
    32       C         -5.0670000  *  -25.883000  *   10.018000  *
    33       H         -5.2560000  *  -27.202000  *    8.348000  *
    34       H         -4.1110000  *  -25.495000  *    9.700000  *
    35       O         -7.4370000  *  -25.468000  *   12.750000  *
    36       H         -7.3510000  *  -24.514000  *   12.880000  *
    37       O         -7.5730000  *  -28.283000  *    8.918000  *
    38       H         -7.0810000  *  -28.555000  *    8.130000  *
    39       C         -4.3390000  *  -20.123000  *   12.043000  *
    40       H         -5.0700000  *  -20.533000  *   12.741000  *
    41       H         -3.3820000  *  -20.625000  *   12.182000  *
    42       H         -4.2200000  *  -19.055000  *   12.227000  *
    43       C         -4.8570000  *  -19.006000  *    9.861000  *
    44       H         -5.8900000  *  -18.684000  *    9.736000  *
    45       H         -4.3090000  *  -18.258000  *   10.433000  *
    46       H         -4.3940000  *  -19.127000  *    8.882000  *
    47       C         -1.6710000  *  -27.071000  *   11.173000  *
    48       H         -2.1650000  *  -26.451000  *   10.424000  *
    49       H         -0.8900000  *  -27.663000  *   10.697000  *
    50       H         -2.4020000  *  -27.736000  *   11.633000  *
    51       C          0.3960000  *  -26.605000  *   12.509000  *
    52       H          1.0670000  *  -26.020000  *   11.881000  *
    53       H          0.6410000  *  -26.435000  *   13.558000  *
    54       H          0.5090000  *  -27.664000  *   12.276000  *
 


          CARTESIAN COORDINATES 

    NO.       ATOM         X         Y         Z

     1         C       -4.8260  -20.3410   10.6080
     2         C       -3.8980  -21.3190    9.8870
     3         C       -3.8750  -22.6400   10.6190
     4         C       -4.9660  -23.0640   11.2860
     5         C       -4.9360  -24.3830   12.0170
     6         C       -3.5140  -24.8230   12.2630
     7         C       -2.5100  -24.2900   11.5400
     8         C       -1.0830  -24.7160   11.7910
     9         C       -1.0500  -26.1760   12.2470
    10         C       -1.8670  -26.2690   13.5380
    11         C       -3.2630  -25.7900   13.2530
    12         O       -4.1920  -26.2470   13.8890
    13         O       -2.7530  -23.3770   10.5870
    14         C       -6.1440  -22.2950   11.3190
    15         O       -7.1130  -22.7140   11.9200
    16         C       -6.2240  -20.9640   10.6230
    17         H       -4.2570  -21.4750    8.8700
    18         H       -2.8890  -20.9050    9.8560
    19         H       -5.4480  -24.2760   12.9730
    20         H       -0.5080  -24.6110   10.8710
    21         H       -0.6480  -24.0850   12.5650
    22         H       -1.8950  -27.3040   13.8800
    23         H       -1.4120  -25.6410   14.3050
    24         H       -6.9120  -20.3100   11.1600
    25         H       -6.5730  -21.1050    9.6010
    26         C       -5.6420  -25.4260   11.1900
    27         C       -6.8700  -25.9230   11.6010
    28         C       -7.5190  -26.8820   10.8390
    29         C       -6.9390  -27.3430    9.6680
    30         H       -8.4760  -27.2700   11.1580
    31         C       -5.7100  -26.8430    9.2600
    32         C       -5.0670  -25.8830   10.0180
    33         H       -5.2560  -27.2020    8.3480
    34         H       -4.1110  -25.4950    9.7000
    35         O       -7.4370  -25.4680   12.7500
    36         H       -7.3510  -24.5140   12.8800
    37         O       -7.5730  -28.2830    8.9180
    38         H       -7.0810  -28.5550    8.1300
    39         C       -4.3390  -20.1230   12.0430
    40         H       -5.0700  -20.5330   12.7410
    41         H       -3.3820  -20.6250   12.1820
    42         H       -4.2200  -19.0550   12.2270
    43         C       -4.8570  -19.0060    9.8610
    44         H       -5.8900  -18.6840    9.7360
    45         H       -4.3090  -18.2580   10.4330
    46         H       -4.3940  -19.1270    8.8820
    47         C       -1.6710  -27.0710   11.1730
    48         H       -2.1650  -26.4510   10.4240
    49         H       -0.8900  -27.6630   10.6970
    50         H       -2.4020  -27.7360   11.6330
    51         C        0.3960  -26.6050   12.5090
    52         H        1.0670  -26.0200   11.8810
    53         H        0.6410  -26.4350   13.5580
    54         H        0.5090  -27.6640   12.2760

 General Reference for PM6:
 "Optimization of Parameters for Semiempirical Methods V: Modification of NDDO Approximations
 and Application to 70 Elements", J. J. P. Stewart, J. Mol. Mod., 13, 1173-1213 (2007)
 URL: http://www.springerlink.com/content/ar33482301010477/fulltext.pdf

           Empirical Formula: C23 H26 O5  =    54 atoms



      MOLECULAR POINT GROUP   :   C1  
 
   NUMBER AND TYPES OF BONDS IDENTIFIED
 
         SIGMA BONDS               57
         LONE PAIRS                10
         NORMAL PI BONDS            6
         AROMATIC RING PI BONDS     1
 

                  Ramachandran Angles
              Residue    phi    psi  omega

  
  SCF CRITERION =    0.1000E-02

 -------------------------------------------------------------------------------
 PM6 T=31427804 DUMP=4320 XYZ EPS=78.40 RSOLV=1.30 MULLIK LBFGS MOZYME PDBOUT +
 CHARGE=0 RELSCF=0.1 LET DDMIN=0.0 GNORM=0.15 1SCF
 SJ000002349-1_T001S001I001C03_001: Geometry optimization step



     1SCF WAS SPECIFIED, SO BFGS WAS NOT USED                 
     SCF FIELD WAS ACHIEVED                                   


                               PM6     CALCULATION
                                                       MOPAC2009 (Version: 9.015L)
                                                       Wed Sep  7 22:24:09 2011




          FINAL HEAT OF FORMATION =       -194.14962 KCAL =    -812.32202 KJ
          VAN DER WAALS AREA      =        358.94 SQUARE ANGSTROMS


          TOTAL ENERGY            =      -4641.33885 EV
          ELECTRONIC ENERGY       =     -41805.33143 EV
          CORE-CORE REPULSION     =      37163.99258 EV
          DIELECTRIC ENERGY       =         -1.44139 EV
          COSMO AREA              =        358.94 SQUARE ANGSTROMS
          COSMO VOLUME            =        432.62 CUBIC ANGSTROMS

          NO. OF FILLED LEVELS    =         74
          MOLECULAR WEIGHT        =        382.455

          MOLECULAR DIMENSIONS (Angstroms)

            Atom       Atom       Distance
            H    44    H    53    10.83234
            H    42    H    38    10.10270
            O    35    H    20     5.87953


          SCF CALCULATIONS        =          2
          COMPUTATION TIME        =          0.622 SECONDS




   ATOM           CHEMICAL             X               Y              Z
  NUMBER           SYMBOL         (ANGSTROMS)     (ANGSTROMS)    (ANGSTROMS)
 
     1       C(     1  C     )   -4.8260000  *  -20.341000  *   10.608000  *
     2       C(     2  C     )   -3.8980000  *  -21.319000  *    9.887000  *
     3       C(     3  C     )   -3.8750000  *  -22.640000  *   10.619000  *
     4       C(     4  C     )   -4.9660000  *  -23.064000  *   11.286000  *
     5       C(     5  C     )   -4.9360000  *  -24.383000  *   12.017000  *
     6       C(     6  C     )   -3.5140000  *  -24.823000  *   12.263000  *
     7       C(     7  C     )   -2.5100000  *  -24.290000  *   11.540000  *
     8       C(     8  C     )   -1.0830000  *  -24.716000  *   11.791000  *
     9       C(     9  C     )   -1.0500000  *  -26.176000  *   12.247000  *
    10       C(    10  C     )   -1.8670000  *  -26.269000  *   13.538000  *
    11       C(    11  C     )   -3.2630000  *  -25.790000  *   13.253000  *
    12       O(    12  O     )   -4.1920000  *  -26.247000  *   13.889000  *
    13       O(    13  O     )   -2.7530000  *  -23.377000  *   10.587000  *
    14       C(    14  C     )   -6.1440000  *  -22.295000  *   11.319000  *
    15       O(    15  O     )   -7.1130000  *  -22.714000  *   11.920000  *
    16       C(    16  C     )   -6.2240000  *  -20.964000  *   10.623000  *
    17       H(    17  C     )   -4.2570000  *  -21.475000  *    8.870000  *
    18       H(    18  C     )   -2.8890000  *  -20.905000  *    9.856000  *
    19       H(    19  C     )   -5.4480000  *  -24.276000  *   12.973000  *
    20       H(    20  C     )   -0.5080000  *  -24.611000  *   10.871000  *
    21       H(    21  C     )   -0.6480000  *  -24.085000  *   12.565000  *
    22       H(    22  C     )   -1.8950000  *  -27.304000  *   13.880000  *
    23       H(    23  C     )   -1.4120000  *  -25.641000  *   14.305000  *
    24       H(    24  C     )   -6.9120000  *  -20.310000  *   11.160000  *
    25       H(    25  C     )   -6.5730000  *  -21.105000  *    9.601000  *
    26       C(    26  C     )   -5.6420000  *  -25.426000  *   11.190000  *
    27       C(    27  C     )   -6.8700000  *  -25.923000  *   11.601000  *
    28       C(    28  C     )   -7.5190000  *  -26.882000  *   10.839000  *
    29       C(    29  C     )   -6.9390000  *  -27.343000  *    9.668000  *
    30       H(    30  C     )   -8.4760000  *  -27.270000  *   11.158000  *
    31       C(    31  C     )   -5.7100000  *  -26.843000  *    9.260000  *
    32       C(    32  C     )   -5.0670000  *  -25.883000  *   10.018000  *
    33       H(    33  C     )   -5.2560000  *  -27.202000  *    8.348000  *
    34       H(    34  C     )   -4.1110000  *  -25.495000  *    9.700000  *
    35       O(    35  O     )   -7.4370000  *  -25.468000  *   12.750000  *
    36       H(    36  O     )   -7.3510000  *  -24.514000  *   12.880000  *
    37       O(    37  O     )   -7.5730000  *  -28.283000  *    8.918000  *
    38       H(    38  O     )   -7.0810000  *  -28.555000  *    8.130000  *
    39       C(    39  C     )   -4.3390000  *  -20.123000  *   12.043000  *
    40       H(    40  C     )   -5.0700000  *  -20.533000  *   12.741000  *
    41       H(    41  C     )   -3.3820000  *  -20.625000  *   12.182000  *
    42       H(    42  C     )   -4.2200000  *  -19.055000  *   12.227000  *
    43       C(    43  C     )   -4.8570000  *  -19.006000  *    9.861000  *
    44       H(    44  C     )   -5.8900000  *  -18.684000  *    9.736000  *
    45       H(    45  C     )   -4.3090000  *  -18.258000  *   10.433000  *
    46       H(    46  C     )   -4.3940000  *  -19.127000  *    8.882000  *
    47       C(    47  C     )   -1.6710000  *  -27.071000  *   11.173000  *
    48       H(    48  C     )   -2.1650000  *  -26.451000  *   10.424000  *
    49       H(    49  C     )   -0.8900000  *  -27.663000  *   10.697000  *
    50       H(    50  C     )   -2.4020000  *  -27.736000  *   11.633000  *
    51       C(    51  C     )    0.3960000  *  -26.605000  *   12.509000  *
    52       H(    52  C     )    1.0670000  *  -26.020000  *   11.881000  *
    53       H(    53  C     )    0.6410000  *  -26.435000  *   13.558000  *
    54       H(    54  C     )    0.5090000  *  -27.664000  *   12.276000  *

           Empirical Formula: C23 H26 O5  =    54 atoms



              NET ATOMIC CHARGES AND DIPOLE CONTRIBUTIONS

  ATOM NO.   TYPE          CHARGE      No. of ELECS.   s-Pop       p-Pop       
    1          C           0.286511        3.7135     1.06340     2.65009
    2          C          -0.425640        4.4256     1.10865     3.31699
    3          C           0.454645        3.5454     1.10140     2.44395
    4          C          -0.502134        4.5021     1.11052     3.39161
    5          C           0.144969        3.8550     1.04779     2.80724
    6          C          -0.487377        4.4874     1.11033     3.37704
    7          C           0.438119        3.5619     1.10169     2.46019
    8          C          -0.422084        4.4221     1.10790     3.31419
    9          C           0.287223        3.7128     1.06315     2.64962
   10          C          -0.531348        4.5313     1.11850     3.41285
   11          C           0.670928        3.3291     1.07378     2.25529
   12          O          -0.636059        6.6361     1.84436     4.79170
   13          O          -0.343167        6.3432     1.78236     4.56080
   14          C           0.671270        3.3287     1.07540     2.25333
   15          O          -0.646405        6.6464     1.84178     4.80462
   16          C          -0.526688        4.5267     1.11826     3.40842
   17          H           0.208454        0.7915     0.79155
   18          H           0.201604        0.7984     0.79840
   19          H           0.143327        0.8567     0.85667
   20          H           0.200144        0.7999     0.79986
   21          H           0.208492        0.7915     0.79151
   22          H           0.202475        0.7975     0.79752
   23          H           0.207871        0.7921     0.79213
   24          H           0.204032        0.7960     0.79597
   25          H           0.209608        0.7904     0.79039
   26          C          -0.285470        4.2855     1.09659     3.18888
   27          C           0.428925        3.5711     1.05850     2.51257
   28          C          -0.486731        4.4867     1.09592     3.39081
   29          C           0.430821        3.5692     1.05986     2.50932
   30          H           0.208169        0.7918     0.79183
   31          C          -0.455542        4.4555     1.10652     3.34902
   32          C           0.060382        3.9396     1.09502     2.84460
   33          H           0.194085        0.8059     0.80592
   34          H           0.149354        0.8506     0.85065
   35          O          -0.546344        6.5463     1.77787     4.76847
   36          H           0.372367        0.6276     0.62763
   37          O          -0.517232        6.5172     1.78254     4.73469
   38          H           0.370576        0.6294     0.62942
   39          C          -0.560012        4.5600     1.09868     3.46133
   40          H           0.170108        0.8299     0.82989
   41          H           0.170719        0.8293     0.82928
   42          H           0.177268        0.8227     0.82273
   43          C          -0.549665        4.5497     1.09637     3.45330
   44          H           0.174080        0.8259     0.82592
   45          H           0.175518        0.8245     0.82448
   46          H           0.171987        0.8280     0.82801
   47          C          -0.559306        4.5593     1.09775     3.46155
   48          H           0.168651        0.8313     0.83135
   49          H           0.175670        0.8243     0.82433
   50          H           0.172111        0.8279     0.82789
   51          C          -0.546434        4.5464     1.09588     3.45056
   52          H           0.171620        0.8284     0.82838
   53          H           0.171236        0.8288     0.82876
   54          H           0.174318        0.8257     0.82568


          CARTESIAN COORDINATES 

    NO.       ATOM               X         Y         Z

     1         C                 -4.8260  -20.3410   10.6080
     2         C                 -3.8980  -21.3190    9.8870
     3         C                 -3.8750  -22.6400   10.6190
     4         C                 -4.9660  -23.0640   11.2860
     5         C                 -4.9360  -24.3830   12.0170
     6         C                 -3.5140  -24.8230   12.2630
     7         C                 -2.5100  -24.2900   11.5400
     8         C                 -1.0830  -24.7160   11.7910
     9         C                 -1.0500  -26.1760   12.2470
    10         C                 -1.8670  -26.2690   13.5380
    11         C                 -3.2630  -25.7900   13.2530
    12         O                 -4.1920  -26.2470   13.8890
    13         O                 -2.7530  -23.3770   10.5870
    14         C                 -6.1440  -22.2950   11.3190
    15         O                 -7.1130  -22.7140   11.9200
    16         C                 -6.2240  -20.9640   10.6230
    17         H                 -4.2570  -21.4750    8.8700
    18         H                 -2.8890  -20.9050    9.8560
    19         H                 -5.4480  -24.2760   12.9730
    20         H                 -0.5080  -24.6110   10.8710
    21         H                 -0.6480  -24.0850   12.5650
    22         H                 -1.8950  -27.3040   13.8800
    23         H                 -1.4120  -25.6410   14.3050
    24         H                 -6.9120  -20.3100   11.1600
    25         H                 -6.5730  -21.1050    9.6010
    26         C                 -5.6420  -25.4260   11.1900
    27         C                 -6.8700  -25.9230   11.6010
    28         C                 -7.5190  -26.8820   10.8390
    29         C                 -6.9390  -27.3430    9.6680
    30         H                 -8.4760  -27.2700   11.1580
    31         C                 -5.7100  -26.8430    9.2600
    32         C                 -5.0670  -25.8830   10.0180
    33         H                 -5.2560  -27.2020    8.3480
    34         H                 -4.1110  -25.4950    9.7000
    35         O                 -7.4370  -25.4680   12.7500
    36         H                 -7.3510  -24.5140   12.8800
    37         O                 -7.5730  -28.2830    8.9180
    38         H                 -7.0810  -28.5550    8.1300
    39         C                 -4.3390  -20.1230   12.0430
    40         H                 -5.0700  -20.5330   12.7410
    41         H                 -3.3820  -20.6250   12.1820
    42         H                 -4.2200  -19.0550   12.2270
    43         C                 -4.8570  -19.0060    9.8610
    44         H                 -5.8900  -18.6840    9.7360
    45         H                 -4.3090  -18.2580   10.4330
    46         H                 -4.3940  -19.1270    8.8820
    47         C                 -1.6710  -27.0710   11.1730
    48         H                 -2.1650  -26.4510   10.4240
    49         H                 -0.8900  -27.6630   10.6970
    50         H                 -2.4020  -27.7360   11.6330
    51         C                  0.3960  -26.6050   12.5090
    52         H                  1.0670  -26.0200   11.8810
    53         H                  0.6410  -26.4350   13.5580
    54         H                  0.5090  -27.6640   12.2760


          ATOMIC ORBITAL ELECTRON POPULATIONS

   1.06340   0.85676   0.89066   0.90267   1.10865   1.18164   0.99930   1.13604
   1.10140   0.77998   0.83632   0.82766   1.11052   1.06689   1.11311   1.21161
   1.04779   0.91516   0.87330   1.01877   1.11033   1.05106   1.16750   1.15849
   1.10169   0.93806   0.75966   0.76247   1.10790   1.00877   1.11017   1.19525
   1.06315   0.90964   0.86141   0.87858   1.11850   1.07784   1.20127   1.13373
   1.07378   0.82993   0.71001   0.71535   1.84436   1.57280   1.63703   1.58186
   1.78236   1.50559   1.51681   1.53840   1.07540   0.79092   0.80401   0.65840
   1.84178   1.51791   1.76657   1.52014   1.11826   1.13050   1.09097   1.18695
   0.79155   0.79840   0.85667   0.79986   0.79151   0.79752   0.79213   0.79597
   0.79039   1.09659   1.03383   1.10068   1.05437   1.05850   0.87263   0.87465
   0.76529   1.09592   1.15807   1.16878   1.06397   1.05986   0.86590   0.79338
   0.85004   0.79183   1.10652   1.07017   1.13213   1.14672   1.09502   1.01150
   0.90950   0.92360   0.80592   0.85065   1.77787   1.81932   1.44746   1.50170
   0.62763   1.78254   1.61764   1.61885   1.49820   0.62942   1.09868   1.17973
   1.19958   1.08202   0.82989   0.82928   0.82273   1.09637   1.19740   1.09047
   1.16543   0.82592   0.82448   0.82801   1.09775   1.17683   1.15304   1.13169
   0.83135   0.82433   0.82789   1.09588   1.07480   1.18488   1.19087   0.82838
   0.82876   0.82568

           MULLIKEN POPULATION ANALYSIS



        MULLIKEN POPULATIONS AND CHARGES

      NO.  ATOM   POPULATION      CHARGE
        1    C     3.684646      0.315354
        2    C     4.546155     -0.546155
        3    C     3.520776      0.479224
        4    C     4.553316     -0.553316
        5    C     3.848906      0.151094
        6    C     4.537530     -0.537530
        7    C     3.539296      0.460704
        8    C     4.542010     -0.542010
        9    C     3.683705      0.316295
       10    C     4.662717     -0.662717
       11    C     3.275923      0.724077
       12    O     6.661362     -0.661362
       13    O     6.390416     -0.390416
       14    C     3.276787      0.723213
       15    O     6.673684     -0.673684
       16    C     4.658054     -0.658054
       17    H     0.733938      0.266062
       18    H     0.740823      0.259177
       19    H     0.811412      0.188588
       20    H     0.742536      0.257464
       21    H     0.733828      0.266172
       22    H     0.740262      0.259738
       23    H     0.735848      0.264152
       24    H     0.738424      0.261576
       25    H     0.733225      0.266775
       26    C     4.312632     -0.312632
       27    C     3.542861      0.457139
       28    C     4.560393     -0.560393
       29    C     3.544325      0.455675
       30    H     0.726949      0.273051
       31    C     4.533186     -0.533186
       32    C     3.962975      0.037025
       33    H     0.745317      0.254683
       34    H     0.802557      0.197443
       35    O     6.597585     -0.597585
       36    H     0.591852      0.408148
       37    O     6.569242     -0.569242
       38    H     0.594580      0.405420
       39    C     4.706144     -0.706144
       40    H     0.782416      0.217584
       41    H     0.781545      0.218455
       42    H     0.773837      0.226163
       43    C     4.696779     -0.696779
       44    H     0.777340      0.222660
       45    H     0.775988      0.224012
       46    H     0.779891      0.220109
       47    C     4.705186     -0.705186
       48    H     0.784318      0.215682
       49    H     0.775360      0.224640
       50    H     0.779883      0.220117
       51    C     4.693103     -0.693103
       52    H     0.780322      0.219678
       53    H     0.780572      0.219428
       54    H     0.777280      0.222720



 TOTAL CPU TIME:             0.66 SECONDS

 == MOPAC DONE ==
 *******************************************************************************
 ** Site#:  958            For non-commercial use only         Version 9.015L **
 *******************************************************************************
 ** Cite this work as: MOPAC2009, James J. P. Stewart, Stewart Computational  **
 ** Chemistry, Version 9.015L web: HTTP://OpenMOPAC.net                       **
 *******************************************************************************
 **                                                                           **
 **                                MOPAC2009                                  **
 **                                                                           **
 *******************************************************************************

                            PM6 CALCULATION RESULTS


 *******************************************************************************
 *  CALCULATION DONE:                                Wed Sep  7 22:24:09 2011  *
 *  PM6      - The PM6 Hamiltonian to be used
 *  GEO-OK   - OVERRIDE INTERATOMIC DISTANCE CHECK
 *  MOZYME   - USE LOCALIZED M.O.s IN SOLVING THE SCF EQUATIONS
 *
 *
 *
 *                 CHARGE ON SYSTEM =     0
 *
 *
 *
 *  EPS= 78.400
 *  RSOLV=  1.300
 *  OLDGEO   - PREVIOUS GEOMETRY TO BE USED
 *  T=       - A TIME OF 172800.0 SECONDS REQUESTED
 *  DUMP=N   - RESTART FILE WRITTEN EVERY  4320.000 SECONDS
 *  RELSCF   - DEFAULT SCF CRITERION MULTIPLIED BY   0.100    
 *             (DEFAULT SCFCRT= 0.00010)
 *  THERMO   - THERMODYNAMIC QUANTITIES TO BE CALCULATED
 *******************************************************************************
 PM6 DUMP=4320 MOZYME RELSCF=0.1 THERMO EPS=78.40 RSOLV=1.30 +
 OLDGEO GEO-OK CHARGE=0
 SJ000002349-1_T001S001I001C03_001: Free energy calculation

   ATOM           CHEMICAL             X               Y              Z
  NUMBER           SYMBOL         (ANGSTROMS)     (ANGSTROMS)    (ANGSTROMS)
 
     1       C(     1  C     )   -4.8260000  *  -20.341000  *   10.608000  *
     2       C(     2  C     )   -3.8980000  *  -21.319000  *    9.887000  *
     3       C(     3  C     )   -3.8750000  *  -22.640000  *   10.619000  *
     4       C(     4  C     )   -4.9660000  *  -23.064000  *   11.286000  *
     5       C(     5  C     )   -4.9360000  *  -24.383000  *   12.017000  *
     6       C(     6  C     )   -3.5140000  *  -24.823000  *   12.263000  *
     7       C(     7  C     )   -2.5100000  *  -24.290000  *   11.540000  *
     8       C(     8  C     )   -1.0830000  *  -24.716000  *   11.791000  *
     9       C(     9  C     )   -1.0500000  *  -26.176000  *   12.247000  *
    10       C(    10  C     )   -1.8670000  *  -26.269000  *   13.538000  *
    11       C(    11  C     )   -3.2630000  *  -25.790000  *   13.253000  *
    12       O(    12  O     )   -4.1920000  *  -26.247000  *   13.889000  *
    13       O(    13  O     )   -2.7530000  *  -23.377000  *   10.587000  *
    14       C(    14  C     )   -6.1440000  *  -22.295000  *   11.319000  *
    15       O(    15  O     )   -7.1130000  *  -22.714000  *   11.920000  *
    16       C(    16  C     )   -6.2240000  *  -20.964000  *   10.623000  *
    17       H(    17  C     )   -4.2570000  *  -21.475000  *    8.870000  *
    18       H(    18  C     )   -2.8890000  *  -20.905000  *    9.856000  *
    19       H(    19  C     )   -5.4480000  *  -24.276000  *   12.973000  *
    20       H(    20  C     )   -0.5080000  *  -24.611000  *   10.871000  *
    21       H(    21  C     )   -0.6480000  *  -24.085000  *   12.565000  *
    22       H(    22  C     )   -1.8950000  *  -27.304000  *   13.880000  *
    23       H(    23  C     )   -1.4120000  *  -25.641000  *   14.305000  *
    24       H(    24  C     )   -6.9120000  *  -20.310000  *   11.160000  *
    25       H(    25  C     )   -6.5730000  *  -21.105000  *    9.601000  *
    26       C(    26  C     )   -5.6420000  *  -25.426000  *   11.190000  *
    27       C(    27  C     )   -6.8700000  *  -25.923000  *   11.601000  *
    28       C(    28  C     )   -7.5190000  *  -26.882000  *   10.839000  *
    29       C(    29  C     )   -6.9390000  *  -27.343000  *    9.668000  *
    30       H(    30  C     )   -8.4760000  *  -27.270000  *   11.158000  *
    31       C(    31  C     )   -5.7100000  *  -26.843000  *    9.260000  *
    32       C(    32  C     )   -5.0670000  *  -25.883000  *   10.018000  *
    33       H(    33  C     )   -5.2560000  *  -27.202000  *    8.348000  *
    34       H(    34  C     )   -4.1110000  *  -25.495000  *    9.700000  *
    35       O(    35  O     )   -7.4370000  *  -25.468000  *   12.750000  *
    36       H(    36  O     )   -7.3510000  *  -24.514000  *   12.880000  *
    37       O(    37  O     )   -7.5730000  *  -28.283000  *    8.918000  *
    38       H(    38  O     )   -7.0810000  *  -28.555000  *    8.130000  *
    39       C(    39  C     )   -4.3390000  *  -20.123000  *   12.043000  *
    40       H(    40  C     )   -5.0700000  *  -20.533000  *   12.741000  *
    41       H(    41  C     )   -3.3820000  *  -20.625000  *   12.182000  *
    42       H(    42  C     )   -4.2200000  *  -19.055000  *   12.227000  *
    43       C(    43  C     )   -4.8570000  *  -19.006000  *    9.861000  *
    44       H(    44  C     )   -5.8900000  *  -18.684000  *    9.736000  *
    45       H(    45  C     )   -4.3090000  *  -18.258000  *   10.433000  *
    46       H(    46  C     )   -4.3940000  *  -19.127000  *    8.882000  *
    47       C(    47  C     )   -1.6710000  *  -27.071000  *   11.173000  *
    48       H(    48  C     )   -2.1650000  *  -26.451000  *   10.424000  *
    49       H(    49  C     )   -0.8900000  *  -27.663000  *   10.697000  *
    50       H(    50  C     )   -2.4020000  *  -27.736000  *   11.633000  *
    51       C(    51  C     )    0.3960000  *  -26.605000  *   12.509000  *
    52       H(    52  C     )    1.0670000  *  -26.020000  *   11.881000  *
    53       H(    53  C     )    0.6410000  *  -26.435000  *   13.558000  *
    54       H(    54  C     )    0.5090000  *  -27.664000  *   12.276000  *
 


          CARTESIAN COORDINATES 

    NO.       ATOM         X         Y         Z

     1         C       -4.8260  -20.3410   10.6080
     2         C       -3.8980  -21.3190    9.8870
     3         C       -3.8750  -22.6400   10.6190
     4         C       -4.9660  -23.0640   11.2860
     5         C       -4.9360  -24.3830   12.0170
     6         C       -3.5140  -24.8230   12.2630
     7         C       -2.5100  -24.2900   11.5400
     8         C       -1.0830  -24.7160   11.7910
     9         C       -1.0500  -26.1760   12.2470
    10         C       -1.8670  -26.2690   13.5380
    11         C       -3.2630  -25.7900   13.2530
    12         O       -4.1920  -26.2470   13.8890
    13         O       -2.7530  -23.3770   10.5870
    14         C       -6.1440  -22.2950   11.3190
    15         O       -7.1130  -22.7140   11.9200
    16         C       -6.2240  -20.9640   10.6230
    17         H       -4.2570  -21.4750    8.8700
    18         H       -2.8890  -20.9050    9.8560
    19         H       -5.4480  -24.2760   12.9730
    20         H       -0.5080  -24.6110   10.8710
    21         H       -0.6480  -24.0850   12.5650
    22         H       -1.8950  -27.3040   13.8800
    23         H       -1.4120  -25.6410   14.3050
    24         H       -6.9120  -20.3100   11.1600
    25         H       -6.5730  -21.1050    9.6010
    26         C       -5.6420  -25.4260   11.1900
    27         C       -6.8700  -25.9230   11.6010
    28         C       -7.5190  -26.8820   10.8390
    29         C       -6.9390  -27.3430    9.6680
    30         H       -8.4760  -27.2700   11.1580
    31         C       -5.7100  -26.8430    9.2600
    32         C       -5.0670  -25.8830   10.0180
    33         H       -5.2560  -27.2020    8.3480
    34         H       -4.1110  -25.4950    9.7000
    35         O       -7.4370  -25.4680   12.7500
    36         H       -7.3510  -24.5140   12.8800
    37         O       -7.5730  -28.2830    8.9180
    38         H       -7.0810  -28.5550    8.1300
    39         C       -4.3390  -20.1230   12.0430
    40         H       -5.0700  -20.5330   12.7410
    41         H       -3.3820  -20.6250   12.1820
    42         H       -4.2200  -19.0550   12.2270
    43         C       -4.8570  -19.0060    9.8610
    44         H       -5.8900  -18.6840    9.7360
    45         H       -4.3090  -18.2580   10.4330
    46         H       -4.3940  -19.1270    8.8820
    47         C       -1.6710  -27.0710   11.1730
    48         H       -2.1650  -26.4510   10.4240
    49         H       -0.8900  -27.6630   10.6970
    50         H       -2.4020  -27.7360   11.6330
    51         C        0.3960  -26.6050   12.5090
    52         H        1.0670  -26.0200   11.8810
    53         H        0.6410  -26.4350   13.5580
    54         H        0.5090  -27.6640   12.2760

 General Reference for PM6:
 "Optimization of Parameters for Semiempirical Methods V: Modification of NDDO Approximations
 and Application to 70 Elements", J. J. P. Stewart, J. Mol. Mod., 13, 1173-1213 (2007)
 URL: http://www.springerlink.com/content/ar33482301010477/fulltext.pdf

           Empirical Formula: C23 H26 O5  =    54 atoms



      MOLECULAR POINT GROUP   :   C1  
 
   NUMBER AND TYPES OF BONDS IDENTIFIED
 
         SIGMA BONDS               57
         LONE PAIRS                10
         NORMAL PI BONDS            6
         AROMATIC RING PI BONDS     1
 
  SCF CRITERION =    0.1000E-02


          HEAT OF FORMATION =    -194.149642 KCALS/MOLE


          INTERNAL COORDINATE DERIVATIVES

   NUMBER  ATOM       BOND         ANGLE      DIHEDRAL

     1       C
     2       C     11.341581
     3       C      8.139695     3.669325
     4       C    -28.429518   -22.258223    13.096448
     5       C     36.935904    21.274800   -23.881428
     6       C    -41.616739   -16.238852    22.449296
     7       C    -11.085307     5.483871    -3.407925
     8       C     21.948687    47.358240   -13.570287
     9       C    -14.310057   -40.859542    24.812613
    10       C     13.269918    24.997163   -24.356797
    11       C    -13.094475    -6.218603     4.804179
    12       O      2.136345     9.171329   -11.117604
    13       O     -4.043546   -46.901180    13.841042
    14       C     13.924001   -35.154424    -8.932102
    15       O    -37.630719    57.825795    28.145051
    16       C     34.008871    10.520650   -24.537603
    17       H     28.590035   -28.180854   -21.813542
    18       H     -8.241808   -10.935848     8.468152
    19       H    -10.681051     9.757821    -9.632844
    20       H     -8.729074    11.584978     8.030475
    21       H     17.182669   -13.758553     5.977343
    22       H     -8.064902    13.935561     6.080445
    23       H      6.600713     6.523474    14.469898
    24       H     -2.514931   -13.732576     4.124978
    25       H      6.241217    -6.692115    11.761244
    26       C     12.843491     1.948246    -6.944026
    27       C      1.033382     5.898757   -14.832025
    28       C      3.806641    12.160958    23.570545
    29       C     -0.060455     4.816912    -2.427314
    30       H     16.080094   -25.879004   -23.829882
    31       C     -6.967335     3.779174     2.811085
    32       C      3.826422    -4.975957    -5.059662
    33       H    -20.543096    14.575785     0.442379
    34       H     -9.317650     4.626673    -0.199081
    35       O     -7.128130     3.676254    -2.026307
    36       H     -4.692231     6.713622     4.832701
    37       O      2.384612   -27.811574   -20.914159
    38       H     10.900971    15.492945    13.127412
    39       C     20.237734   -18.096264    -9.082729
    40       H    -15.194168     9.004831    -2.015177
    41       H     -0.630910     0.001743    -2.689067
    42       H      4.767481    -4.759055     9.725096
    43       C      3.559222    -3.992003    10.046506
    44       H      4.378439    -3.448760     7.944243
    45       H     -6.369869    -5.140632    -3.183247
    46       H      4.985930     8.373110    -0.822891
    47       C      3.231040     8.907179     2.224601
    48       H      2.297697    10.212057    -1.034928
    49       H      0.637154     0.931072     1.872888
    50       H     -6.644229    -0.194978   -10.361038
    51       C     -5.835530     0.740571    -7.713655
    52       H     -5.710873    -1.496754    -8.686521
    53       H      8.468681     1.314716    -2.192041
    54       H     -7.175844     0.791197     5.967299


          GRADIENT NORM = 194.55166



 ** GRADIENT IS TOO LARGE TO ALLOW FORCE MATRIX TO BE CALCULATED, (LIMIT=10) **



 EITHER ADD 'LET' OR REDUCE GRADIENT
 USING 'TS' OR OTHER GEOMETRY OPTIMIZER



 TOTAL CPU TIME:             1.46 SECONDS

 == MOPAC DONE ==
