 *******************************************************************************
 ** Site#:  958            For non-commercial use only         Version 9.015L **
 *******************************************************************************
 ** Cite this work as: MOPAC2009, James J. P. Stewart, Stewart Computational  **
 ** Chemistry, Version 9.015L web: HTTP://OpenMOPAC.net                       **
 *******************************************************************************
 **                                                                           **
 **                                MOPAC2009                                  **
 **                                                                           **
 *******************************************************************************

                            PM6 CALCULATION RESULTS


 *******************************************************************************
 *  CALCULATION DONE:                                Tue Sep  6 16:26:54 2011  *
 *  PM6      - The PM6 Hamiltonian to be used
 *
 *
 *
 *                 CHARGE ON SYSTEM =     0
 *
 *
 *
 *  EPS= 78.400
 *  RSOLV=  1.300
 *  LET      - OVERRIDE SOME SAFETY CHECKS
 *  XYZ      - CARTESIAN COORDINATE SYSTEM TO BE USED
 *  T=       - A TIME OF  0.3E+08 SECONDS REQUESTED
 *  DUMP=N   - RESTART FILE WRITTEN EVERY  4320.000 SECONDS
 *  DDMIN=   - MINIMUM TRUST RADIUS  0.000 ANG/RAD
 *  GNORM=   - EXIT WHEN GRADIENT NORM DROPS BELOW .150    
 *  RELSCF   - DEFAULT SCF CRITERION MULTIPLIED BY   0.100    
 *             (DEFAULT SCFCRT= 0.00010)
 *  SYBYL    - OUTPUT SYBYL FILE
 *  MULLIK   - THE MULLIKEN ANALYSIS TO BE PERFORMED
 *******************************************************************************
 PM6 T=31535638 DUMP=4320 XYZ EPS=78.40 RSOLV=1.30 MULLIK SYBYL +
 CHARGE=0 RELSCF=0.1 LET DDMIN=0.0 GNORM=0.15
 SJ000002349-1_T001S001I001C06: Geometry optimization step

   ATOM   CHEMICAL          X               Y              Z
  NUMBER   SYMBOL      (ANGSTROMS)     (ANGSTROMS)    (ANGSTROMS)
 
     1       C          0.0020000  *   -0.004000  *    0.002000  *
     2       C          0.7390000  *   -0.526000  *    1.236000  *
     3       C          0.7630000  *   -2.036000  *    1.225000  *
     4       C         -0.2570000  *   -2.723000  *    0.676000  *
     5       C         -0.2300000  *   -4.230000  *    0.659000  *
     6       C          1.1700000  *   -4.742000  *    0.889000  *
     7       C          2.1040000  *   -3.933000  *    1.423000  *
     8       C          3.5080000  *   -4.444000  *    1.644000  *
     9       C          3.4770000  *   -5.938000  *    1.967000  *
    10       C          2.8600000  *   -6.627000  *    0.749000  *
    11       C          1.4790000  *   -6.069000  *    0.535000  *
    12       O          0.6180000  *   -6.774000  *    0.050000  *
    13       O          1.8110000  *   -2.671000  *    1.774000  *
    14       C         -1.3580000  *   -2.052000  *    0.112000  *
    15       O         -2.2690000  *   -2.697000  *   -0.367000  *
    16       C         -1.4250000  *   -0.549000  *    0.092000  *
    17       H          1.7610000  *   -0.148000  *    1.232000  *
    18       H          0.2290000  *   -0.179000  *    2.135000  *
    19       H         -0.8840000  *   -4.609000  *    1.445000  *
    20       H          4.0980000  *   -4.282000  *    0.742000  *
    21       H          3.9630000  *   -3.904000  *    2.475000  *
    22       H          3.4730000  *   -6.435000  *   -0.132000  *
    23       H          2.7980000  *   -7.701000  *    0.925000  *
    24       H         -1.8970000  *   -0.191000  *    1.006000  *
    25       H         -1.9990000  *   -0.219000  *   -0.773000  *
    26       C         -0.7250000  *   -4.721000  *   -0.677000  *
    27       C         -1.8460000  *   -5.536000  *   -0.744000  *
    28       C         -2.3000000  *   -5.987000  *   -1.974000  *
    29       C         -1.6340000  *   -5.622000  *   -3.133000  *
    30       H         -3.1720000  *   -6.622000  *   -2.029000  *
    31       C         -0.5130000  *   -4.806000  *   -3.061000  *
    32       C         -0.0660000  *   -4.353000  *   -1.834000  *
    33       H          0.0060000  *   -4.521000  *   -3.963000  *
    34       H          0.8060000  *   -3.719000  *   -1.780000  *
    35       O         -2.4970000  *   -5.892000  *    0.394000  *
    36       H         -3.2010000  *   -5.281000  *    0.652000  *
    37       O         -2.0780000  *   -6.061000  *   -4.340000  *
    38       H         -2.7210000  *   -5.474000  *   -4.761000  *
    39       C         -0.0190000  *    1.526000  *    0.010000  *
    40       H          1.0040000  *    1.903000  *    0.003000  *
    41       H         -0.5460000  *    1.887000  *   -0.873000  *
    42       H         -0.5290000  *    1.877000  *    0.907000  *
    43       C          0.6820000  *   -0.513000  *   -1.271000  *
    44       H          1.7060000  *   -0.141000  *   -1.310000  *
    45       H          0.6910000  *   -1.603000  *   -1.266000  *
    46       H          0.1330000  *   -0.158000  *   -2.143000  *
    47       C          4.8970000  *   -6.456000  *    2.200000  *
    48       H          5.3480000  *   -5.919000  *    3.035000  *
    49       H          4.8630000  *   -7.521000  *    2.429000  *
    50       H          5.4940000  *   -6.297000  *    1.302000  *
    51       C          2.6160000  *   -6.190000  *    3.207000  *
    52       H          1.6000000  *   -5.843000  *    3.020000  *
    53       H          2.6010000  *   -7.258000  *    3.428000  *
    54       H          3.0350000  *   -5.649000  *    4.056000  *
 


          CARTESIAN COORDINATES 

    NO.       ATOM         X         Y         Z

     1         C        0.0020   -0.0040    0.0020
     2         C        0.7390   -0.5260    1.2360
     3         C        0.7630   -2.0360    1.2250
     4         C       -0.2570   -2.7230    0.6760
     5         C       -0.2300   -4.2300    0.6590
     6         C        1.1700   -4.7420    0.8890
     7         C        2.1040   -3.9330    1.4230
     8         C        3.5080   -4.4440    1.6440
     9         C        3.4770   -5.9380    1.9670
    10         C        2.8600   -6.6270    0.7490
    11         C        1.4790   -6.0690    0.5350
    12         O        0.6180   -6.7740    0.0500
    13         O        1.8110   -2.6710    1.7740
    14         C       -1.3580   -2.0520    0.1120
    15         O       -2.2690   -2.6970   -0.3670
    16         C       -1.4250   -0.5490    0.0920
    17         H        1.7610   -0.1480    1.2320
    18         H        0.2290   -0.1790    2.1350
    19         H       -0.8840   -4.6090    1.4450
    20         H        4.0980   -4.2820    0.7420
    21         H        3.9630   -3.9040    2.4750
    22         H        3.4730   -6.4350   -0.1320
    23         H        2.7980   -7.7010    0.9250
    24         H       -1.8970   -0.1910    1.0060
    25         H       -1.9990   -0.2190   -0.7730
    26         C       -0.7250   -4.7210   -0.6770
    27         C       -1.8460   -5.5360   -0.7440
    28         C       -2.3000   -5.9870   -1.9740
    29         C       -1.6340   -5.6220   -3.1330
    30         H       -3.1720   -6.6220   -2.0290
    31         C       -0.5130   -4.8060   -3.0610
    32         C       -0.0660   -4.3530   -1.8340
    33         H        0.0060   -4.5210   -3.9630
    34         H        0.8060   -3.7190   -1.7800
    35         O       -2.4970   -5.8920    0.3940
    36         H       -3.2010   -5.2810    0.6520
    37         O       -2.0780   -6.0610   -4.3400
    38         H       -2.7210   -5.4740   -4.7610
    39         C       -0.0190    1.5260    0.0100
    40         H        1.0040    1.9030    0.0030
    41         H       -0.5460    1.8870   -0.8730
    42         H       -0.5290    1.8770    0.9070
    43         C        0.6820   -0.5130   -1.2710
    44         H        1.7060   -0.1410   -1.3100
    45         H        0.6910   -1.6030   -1.2660
    46         H        0.1330   -0.1580   -2.1430
    47         C        4.8970   -6.4560    2.2000
    48         H        5.3480   -5.9190    3.0350
    49         H        4.8630   -7.5210    2.4290
    50         H        5.4940   -6.2970    1.3020
    51         C        2.6160   -6.1900    3.2070
    52         H        1.6000   -5.8430    3.0200
    53         H        2.6010   -7.2580    3.4280
    54         H        3.0350   -5.6490    4.0560

 General Reference for PM6:
 "Optimization of Parameters for Semiempirical Methods V: Modification of NDDO Approximations
 and Application to 70 Elements", J. J. P. Stewart, J. Mol. Mod., 13, 1173-1213 (2007)
 URL: http://www.springerlink.com/content/ar33482301010477/fulltext.pdf

           Empirical Formula: C23 H26 O5  =    54 atoms



      MOLECULAR POINT GROUP   :   C1  


      RHF CALCULATION, NO. OF DOUBLY OCCUPIED LEVELS =   74

      Geometry optimization using EF
  SCF CRITERION =    0.1000E-04

          DIAGONAL MATRIX USED AS START HESSIAN

 CYCLE:     1 TIME:   0.257 TIME LEFT: 16.53W  GRAD.:   193.809 HEAT:-185.6276
 CYCLE:     2 TIME:   0.147 TIME LEFT: 16.53W  GRAD.:   184.801 HEAT:-194.5397
 CYCLE:     3 TIME:   0.145 TIME LEFT: 16.53W  GRAD.:   190.460 HEAT:-199.5977
 CYCLE:     4 TIME:   0.146 TIME LEFT: 16.53W  GRAD.:   259.507 HEAT:-192.8684
 CYCLE:     5 TIME:   0.145 TIME LEFT: 16.53W  GRAD.:   260.667 HEAT:-196.5997
 CYCLE:     6 TIME:   0.145 TIME LEFT: 16.53W  GRAD.:   323.559 HEAT:-189.9680
 CYCLE:     7 TIME:   0.146 TIME LEFT: 16.53W  GRAD.:   203.895 HEAT:-198.5593
 CYCLE:     8 TIME:   0.145 TIME LEFT: 16.53W  GRAD.:   186.543 HEAT:-201.8551
 CYCLE:     9 TIME:   0.145 TIME LEFT: 16.53W  GRAD.:   298.865 HEAT:-192.3844
 CYCLE:    10 TIME:   0.148 TIME LEFT: 16.53W  GRAD.:   225.509 HEAT:-199.4825
 CYCLE:    11 TIME:   0.144 TIME LEFT: 16.53W  GRAD.:   239.027 HEAT:-197.9965
 CYCLE:    12 TIME:   0.145 TIME LEFT: 16.53W  GRAD.:   273.096 HEAT:-195.3588
 CYCLE:    13 TIME:   0.158 TIME LEFT: 16.53W  GRAD.:   211.739 HEAT:-201.3582
 CYCLE:    14 TIME:   0.148 TIME LEFT: 16.53W  GRAD.:   291.589 HEAT:-193.1663
 CYCLE:    15 TIME:   0.150 TIME LEFT: 16.53W  GRAD.:   229.072 HEAT:-198.4990
 CYCLE:    16 TIME:   0.152 TIME LEFT: 16.53W  GRAD.:   248.728 HEAT:-200.0228
 CYCLE:    17 TIME:   0.142 TIME LEFT: 16.53W  GRAD.:   380.007 HEAT:-188.1610
 CYCLE:    18 TIME:   0.146 TIME LEFT: 16.53W  GRAD.:   275.240 HEAT:-198.3840
 CYCLE:    19 TIME:   0.143 TIME LEFT: 16.53W  GRAD.:   289.355 HEAT:-196.9529
 CYCLE:    20 TIME:   0.145 TIME LEFT: 16.53W  GRAD.:   311.087 HEAT:-193.3399
 CYCLE:    21 TIME:   0.152 TIME LEFT: 16.53W  GRAD.:   202.616 HEAT:-203.6157
 CYCLE:    22 TIME:   0.144 TIME LEFT: 16.53W  GRAD.:   288.140 HEAT:-196.0598
 CYCLE:    23 TIME:   0.143 TIME LEFT: 16.53W  GRAD.:   249.337 HEAT:-200.2327
 CYCLE:    24 TIME:   0.146 TIME LEFT: 16.53W  GRAD.:   232.827 HEAT:-200.7450
 CYCLE:    25 TIME:   0.144 TIME LEFT: 16.53W  GRAD.:   301.555 HEAT:-196.2962
 CYCLE:    26 TIME:   0.149 TIME LEFT: 16.53W  GRAD.:   248.131 HEAT:-198.5580
 CYCLE:    27 TIME:   0.145 TIME LEFT: 16.53W  GRAD.:   287.503 HEAT:-198.9712
 CYCLE:    28 TIME:   0.157 TIME LEFT: 16.53W  GRAD.:   218.568 HEAT:-202.0894
 CYCLE:    29 TIME:   0.169 TIME LEFT: 16.53W  GRAD.:   205.010 HEAT:-203.3569
 CYCLE:    30 TIME:   0.143 TIME LEFT: 16.53W  GRAD.:   237.745 HEAT:-201.3679
 CYCLE:    31 TIME:   0.158 TIME LEFT: 16.53W  GRAD.:   207.753 HEAT:-203.0625
 CYCLE:    32 TIME:   0.149 TIME LEFT: 16.53W  GRAD.:   241.283 HEAT:-202.9788
 CYCLE:    33 TIME:   0.146 TIME LEFT: 16.53W  GRAD.:   109.994 HEAT:-211.3032
 CYCLE:    34 TIME:   0.143 TIME LEFT: 16.53W  GRAD.:   239.294 HEAT:-200.3685
 CYCLE:    35 TIME:   0.145 TIME LEFT: 16.53W  GRAD.:    91.026 HEAT:-213.0458
 CYCLE:    36 TIME:   0.145 TIME LEFT: 16.53W  GRAD.:   222.469 HEAT:-201.0057
 CYCLE:    37 TIME:   0.149 TIME LEFT: 16.53W  GRAD.:    88.519 HEAT:-213.2903
 CYCLE:    38 TIME:   0.142 TIME LEFT: 16.53W  GRAD.:   167.502 HEAT:-206.0097
 CYCLE:    39 TIME:   0.146 TIME LEFT: 16.53W  GRAD.:   106.330 HEAT:-212.1577
 CYCLE:    40 TIME:   0.146 TIME LEFT: 16.53W  GRAD.:   143.771 HEAT:-208.4185
 CYCLE:    41 TIME:   0.142 TIME LEFT: 16.53W  GRAD.:   116.572 HEAT:-211.8833
 CYCLE:    42 TIME:   0.144 TIME LEFT: 16.53W  GRAD.:   153.481 HEAT:-208.2150
 CYCLE:    43 TIME:   0.151 TIME LEFT: 16.53W  GRAD.:   104.581 HEAT:-213.0024
 CYCLE:    44 TIME:   0.178 TIME LEFT: 16.53W  GRAD.:   171.383 HEAT:-206.3861
 CYCLE:    45 TIME:   0.147 TIME LEFT: 16.53W  GRAD.:   101.529 HEAT:-213.4137
 CYCLE:    46 TIME:   0.142 TIME LEFT: 16.53W  GRAD.:   159.552 HEAT:-208.4810
 CYCLE:    47 TIME:   0.144 TIME LEFT: 16.53W  GRAD.:    98.806 HEAT:-213.8178
 CYCLE:    48 TIME:   0.143 TIME LEFT: 16.53W  GRAD.:   158.773 HEAT:-208.8058
 CYCLE:    49 TIME:   0.144 TIME LEFT: 16.53W  GRAD.:    89.857 HEAT:-214.8526
 CYCLE:    50 TIME:   0.144 TIME LEFT: 16.53W  GRAD.:   175.160 HEAT:-207.9495
 CYCLE:    51 TIME:   0.144 TIME LEFT: 16.53W  GRAD.:    83.359 HEAT:-215.6479
 CYCLE:    52 TIME:   0.144 TIME LEFT: 16.53W  GRAD.:   166.411 HEAT:-208.7971
 CYCLE:    53 TIME:   0.139 TIME LEFT: 16.53W  GRAD.:    84.318 HEAT:-215.6470
 CYCLE:    54 TIME:   0.145 TIME LEFT: 16.53W  GRAD.:   160.641 HEAT:-209.9492
 CYCLE:    55 TIME:   0.144 TIME LEFT: 16.53W  GRAD.:    62.645 HEAT:-217.3734
 CYCLE:    56 TIME:   0.147 TIME LEFT: 16.53W  GRAD.:   188.067 HEAT:-206.5687
 CYCLE:    57 TIME:   0.144 TIME LEFT: 16.53W  GRAD.:    57.955 HEAT:-217.9625
 CYCLE:    58 TIME:   0.143 TIME LEFT: 16.53W  GRAD.:   179.875 HEAT:-207.1634
 CYCLE:    59 TIME:   0.144 TIME LEFT: 16.53W  GRAD.:    54.715 HEAT:-218.5602
 CYCLE:    60 TIME:   0.144 TIME LEFT: 16.53W  GRAD.:   178.916 HEAT:-207.6422
 CYCLE:    61 TIME:   0.142 TIME LEFT: 16.53W  GRAD.:    60.099 HEAT:-218.6134
 CYCLE:    62 TIME:   0.143 TIME LEFT: 16.53W  GRAD.:   146.105 HEAT:-210.7495
 CYCLE:    63 TIME:   0.142 TIME LEFT: 16.53W  GRAD.:    54.143 HEAT:-219.4609
 CYCLE:    64 TIME:   0.143 TIME LEFT: 16.53W  GRAD.:   169.925 HEAT:-208.7621
 CYCLE:    65 TIME:   0.142 TIME LEFT: 16.53W  GRAD.:    42.896 HEAT:-220.3716
 CYCLE:    66 TIME:   0.143 TIME LEFT: 16.53W  GRAD.:   206.473 HEAT:-205.5788
 CYCLE:    67 TIME:   0.144 TIME LEFT: 16.53W  GRAD.:    37.477 HEAT:-220.9371
 CYCLE:    68 TIME:   0.148 TIME LEFT: 16.53W  GRAD.:   151.097 HEAT:-212.1870
 CYCLE:    69 TIME:   0.142 TIME LEFT: 16.53W  GRAD.:    44.089 HEAT:-221.1770
 CYCLE:    70 TIME:   0.142 TIME LEFT: 16.53W  GRAD.:   185.422 HEAT:-208.4145
 CYCLE:    71 TIME:   0.144 TIME LEFT: 16.53W  GRAD.:    43.317 HEAT:-221.6616
 CYCLE:    72 TIME:   0.145 TIME LEFT: 16.53W  GRAD.:   192.783 HEAT:-207.6058
 CYCLE:    73 TIME:   0.142 TIME LEFT: 16.53W  GRAD.:    28.263 HEAT:-222.4434
 CYCLE:    74 TIME:   0.143 TIME LEFT: 16.53W  GRAD.:   107.719 HEAT:-218.2070
 CYCLE:    75 TIME:   0.134 TIME LEFT: 16.53W  GRAD.:    25.388 HEAT:-223.0668
 CYCLE:    76 TIME:   0.141 TIME LEFT: 16.53W  GRAD.:    97.468 HEAT:-219.7620
 CYCLE:    77 TIME:   0.142 TIME LEFT: 16.53W  GRAD.:    25.027 HEAT:-223.6598
 CYCLE:    78 TIME:   0.141 TIME LEFT: 16.53W  GRAD.:   108.225 HEAT:-219.8286
 CYCLE:    79 TIME:   0.142 TIME LEFT: 16.53W  GRAD.:    19.754 HEAT:-224.4800
 CYCLE:    80 TIME:   0.142 TIME LEFT: 16.53W  GRAD.:    69.096 HEAT:-222.9639
 CYCLE:    81 TIME:   0.133 TIME LEFT: 16.53W  GRAD.:    23.485 HEAT:-225.0659
 CYCLE:    82 TIME:   0.138 TIME LEFT: 16.53W  GRAD.:    71.543 HEAT:-223.1957
 CYCLE:    83 TIME:   0.134 TIME LEFT: 16.53W  GRAD.:    19.989 HEAT:-225.9113
 CYCLE:    84 TIME:   0.142 TIME LEFT: 16.53W  GRAD.:    72.020 HEAT:-223.9421
 CYCLE:    85 TIME:   0.133 TIME LEFT: 16.53W  GRAD.:    27.732 HEAT:-226.2858
 CYCLE:    86 TIME:   0.143 TIME LEFT: 16.53W  GRAD.:    71.371 HEAT:-224.1232
 CYCLE:    87 TIME:   0.142 TIME LEFT: 16.53W  GRAD.:    20.536 HEAT:-226.8644
 CYCLE:    88 TIME:   0.136 TIME LEFT: 16.53W  GRAD.:    84.846 HEAT:-224.1470
 CYCLE:    89 TIME:   0.134 TIME LEFT: 16.53W  GRAD.:    13.095 HEAT:-227.1405
 CYCLE:    90 TIME:   0.133 TIME LEFT: 16.53W  GRAD.:    42.497 HEAT:-226.5573
 CYCLE:    91 TIME:   0.134 TIME LEFT: 16.53W  GRAD.:    13.299 HEAT:-227.2603
 CYCLE:    92 TIME:   0.133 TIME LEFT: 16.53W  GRAD.:    46.218 HEAT:-226.3910
 CYCLE:    93 TIME:   0.133 TIME LEFT: 16.53W  GRAD.:     8.958 HEAT:-227.4147
 CYCLE:    94 TIME:   0.133 TIME LEFT: 16.53W  GRAD.:    30.718 HEAT:-227.0422
 CYCLE:    95 TIME:   0.134 TIME LEFT: 16.53W  GRAD.:     9.472 HEAT:-227.4419
 CYCLE:    96 TIME:   0.133 TIME LEFT: 16.53W  GRAD.:    32.190 HEAT:-227.0427
 CYCLE:    97 TIME:   0.132 TIME LEFT: 16.53W  GRAD.:     7.891 HEAT:-227.4450
 CYCLE:    98 TIME:   0.133 TIME LEFT: 16.53W  GRAD.:    30.520 HEAT:-227.1897
 CYCLE:    99 TIME:   0.134 TIME LEFT: 16.53W  GRAD.:     5.050 HEAT:-227.5360
 CYCLE:   100 TIME:   0.128 TIME LEFT: 16.53W  GRAD.:    19.753 HEAT:-227.3704
 CYCLE:   101 TIME:   0.129 TIME LEFT: 16.53W  GRAD.:     4.961 HEAT:-227.5611
 CYCLE:   102 TIME:   0.133 TIME LEFT: 16.53W  GRAD.:    13.511 HEAT:-227.5128
 CYCLE:   103 TIME:   0.129 TIME LEFT: 16.53W  GRAD.:     5.776 HEAT:-227.5980
 CYCLE:   104 TIME:   0.133 TIME LEFT: 16.53W  GRAD.:    21.574 HEAT:-227.5247
 CYCLE:   105 TIME:   0.129 TIME LEFT: 16.53W  GRAD.:     4.398 HEAT:-227.7556
 CYCLE:   106 TIME:   0.128 TIME LEFT: 16.53W  GRAD.:    10.651 HEAT:-227.6855
 CYCLE:   107 TIME:   0.129 TIME LEFT: 16.53W  GRAD.:     7.107 HEAT:-227.7466
 CYCLE:   108 TIME:   0.133 TIME LEFT: 16.53W  GRAD.:    23.274 HEAT:-227.6075
 CYCLE:   109 TIME:   0.128 TIME LEFT: 16.53W  GRAD.:    10.261 HEAT:-227.8563
 CYCLE:   110 TIME:   0.133 TIME LEFT: 16.53W  GRAD.:    21.524 HEAT:-227.8200
 CYCLE:   111 TIME:   0.132 TIME LEFT: 16.53W  GRAD.:     6.570 HEAT:-227.9531
 CYCLE:   112 TIME:   0.135 TIME LEFT: 16.53W  GRAD.:    27.344 HEAT:-227.6993
 CYCLE:   113 TIME:   0.128 TIME LEFT: 16.53W  GRAD.:     7.795 HEAT:-228.0176
 CYCLE:   114 TIME:   0.134 TIME LEFT: 16.53W  GRAD.:    16.227 HEAT:-227.9627
 CYCLE:   115 TIME:   0.134 TIME LEFT: 16.53W  GRAD.:     8.044 HEAT:-228.1600
 CYCLE:   116 TIME:   0.133 TIME LEFT: 16.53W  GRAD.:    29.744 HEAT:-227.9013
 CYCLE:   117 TIME:   0.129 TIME LEFT: 16.53W  GRAD.:     8.378 HEAT:-228.2756
 CYCLE:   118 TIME:   0.133 TIME LEFT: 16.53W  GRAD.:    21.034 HEAT:-228.2338
 CYCLE:   119 TIME:   0.128 TIME LEFT: 16.53W  GRAD.:     9.242 HEAT:-228.4323
 CYCLE:   120 TIME:   0.134 TIME LEFT: 16.53W  GRAD.:    31.481 HEAT:-228.0652
 CYCLE:   121 TIME:   0.134 TIME LEFT: 16.53W  GRAD.:     8.446 HEAT:-228.5029
 CYCLE:   122 TIME:   0.134 TIME LEFT: 16.53W  GRAD.:    19.296 HEAT:-228.4330
 CYCLE:   123 TIME:   0.132 TIME LEFT: 16.53W  GRAD.:     7.736 HEAT:-228.5944
 CYCLE:   124 TIME:   0.133 TIME LEFT: 16.53W  GRAD.:    32.683 HEAT:-228.2721
 CYCLE:   125 TIME:   0.133 TIME LEFT: 16.53W  GRAD.:     3.525 HEAT:-228.6931
 CYCLE:   126 TIME:   0.130 TIME LEFT: 16.53W  GRAD.:     4.416 HEAT:-228.7426
 CYCLE:   127 TIME:   0.134 TIME LEFT: 16.53W  GRAD.:     7.628 HEAT:-228.8471
 CYCLE:   128 TIME:   0.135 TIME LEFT: 16.53W  GRAD.:     9.823 HEAT:-228.8385
 CYCLE:   129 TIME:   0.135 TIME LEFT: 16.53W  GRAD.:     5.170 HEAT:-228.9322
 CYCLE:   130 TIME:   0.134 TIME LEFT: 16.53W  GRAD.:     7.374 HEAT:-228.9692
 CYCLE:   131 TIME:   0.129 TIME LEFT: 16.53W  GRAD.:     3.577 HEAT:-229.0239
 CYCLE:   132 TIME:   0.135 TIME LEFT: 16.53W  GRAD.:     4.949 HEAT:-229.0984
 CYCLE:   133 TIME:   0.134 TIME LEFT: 16.53W  GRAD.:     6.296 HEAT:-229.1435
 CYCLE:   134 TIME:   0.134 TIME LEFT: 16.53W  GRAD.:     5.684 HEAT:-229.1762
 CYCLE:   135 TIME:   0.134 TIME LEFT: 16.53W  GRAD.:     4.669 HEAT:-229.2651
 CYCLE:   136 TIME:   0.133 TIME LEFT: 16.53W  GRAD.:     8.471 HEAT:-229.4274
 CYCLE:   137 TIME:   0.134 TIME LEFT: 16.53W  GRAD.:     6.952 HEAT:-229.5213
 CYCLE:   138 TIME:   0.133 TIME LEFT: 16.53W  GRAD.:     7.320 HEAT:-229.5795
 CYCLE:   139 TIME:   0.132 TIME LEFT: 16.53W  GRAD.:     6.637 HEAT:-229.7868
 CYCLE:   140 TIME:   0.128 TIME LEFT: 16.53W  GRAD.:     7.098 HEAT:-229.7958
 CYCLE:   141 TIME:   0.132 TIME LEFT: 16.53W  GRAD.:     4.269 HEAT:-229.7748
 CYCLE:   142 TIME:   0.132 TIME LEFT: 16.53W  GRAD.:     3.472 HEAT:-229.8191
 CYCLE:   143 TIME:   0.133 TIME LEFT: 16.53W  GRAD.:     3.095 HEAT:-229.8267
 CYCLE:   144 TIME:   0.132 TIME LEFT: 16.53W  GRAD.:     2.756 HEAT:-229.8715
 CYCLE:   145 TIME:   0.132 TIME LEFT: 16.53W  GRAD.:     3.428 HEAT:-229.9674
 CYCLE:   146 TIME:   0.131 TIME LEFT: 16.53W  GRAD.:     3.898 HEAT:-229.9491
 CYCLE:   147 TIME:   0.132 TIME LEFT: 16.53W  GRAD.:     3.435 HEAT:-230.0042
 CYCLE:   148 TIME:   0.132 TIME LEFT: 16.53W  GRAD.:     4.488 HEAT:-230.0460
 CYCLE:   149 TIME:   0.127 TIME LEFT: 16.53W  GRAD.:     2.830 HEAT:-230.0728
 CYCLE:   150 TIME:   0.128 TIME LEFT: 16.53W  GRAD.:     2.671 HEAT:-230.1143
 CYCLE:   151 TIME:   0.133 TIME LEFT: 16.53W  GRAD.:     2.117 HEAT:-230.1521
 CYCLE:   152 TIME:   0.132 TIME LEFT: 16.53W  GRAD.:     1.947 HEAT:-230.1596
 CYCLE:   153 TIME:   0.132 TIME LEFT: 16.53W  GRAD.:     2.232 HEAT:-230.2043
 CYCLE:   154 TIME:   0.132 TIME LEFT: 16.53W  GRAD.:     2.105 HEAT:-230.1994
 CYCLE:   155 TIME:   0.132 TIME LEFT: 16.53W  GRAD.:     2.365 HEAT:-230.2074
 CYCLE:   156 TIME:   0.132 TIME LEFT: 16.53W  GRAD.:     2.344 HEAT:-230.2540
 CYCLE:   157 TIME:   0.132 TIME LEFT: 16.53W  GRAD.:     2.781 HEAT:-230.2555
 CYCLE:   158 TIME:   0.133 TIME LEFT: 16.53W  GRAD.:     2.877 HEAT:-230.3087
 CYCLE:   159 TIME:   0.132 TIME LEFT: 16.53W  GRAD.:     2.778 HEAT:-230.3466
 CYCLE:   160 TIME:   0.128 TIME LEFT: 16.53W  GRAD.:     1.836 HEAT:-230.3818
 CYCLE:   161 TIME:   0.132 TIME LEFT: 16.53W  GRAD.:     1.517 HEAT:-230.4015
 CYCLE:   162 TIME:   0.132 TIME LEFT: 16.53W  GRAD.:     1.389 HEAT:-230.4261
 CYCLE:   163 TIME:   0.133 TIME LEFT: 16.53W  GRAD.:     1.337 HEAT:-230.4268
 CYCLE:   164 TIME:   0.136 TIME LEFT: 16.53W  GRAD.:     1.937 HEAT:-230.2936
 CYCLE:   165 TIME:   0.132 TIME LEFT: 16.53W  GRAD.:     2.304 HEAT:-230.2751
 CYCLE:   166 TIME:   0.132 TIME LEFT: 16.53W  GRAD.:     2.034 HEAT:-230.2818
 CYCLE:   167 TIME:   0.131 TIME LEFT: 16.53W  GRAD.:     1.811 HEAT:-230.3382
 CYCLE:   168 TIME:   0.132 TIME LEFT: 16.53W  GRAD.:     1.600 HEAT:-230.3472
 CYCLE:   169 TIME:   0.132 TIME LEFT: 16.53W  GRAD.:     1.784 HEAT:-230.3524
 CYCLE:   170 TIME:   0.137 TIME LEFT: 16.53W  GRAD.:     1.448 HEAT:-230.5051
 CYCLE:   171 TIME:   0.133 TIME LEFT: 16.53W  GRAD.:     1.260 HEAT:-230.5050
 CYCLE:   172 TIME:   0.132 TIME LEFT: 16.53W  GRAD.:     1.415 HEAT:-230.5114
 CYCLE:   173 TIME:   0.131 TIME LEFT: 16.53W  GRAD.:     1.606 HEAT:-230.5234
 CYCLE:   174 TIME:   0.131 TIME LEFT: 16.53W  GRAD.:     1.647 HEAT:-230.5101
 CYCLE:   175 TIME:   0.132 TIME LEFT: 16.53W  GRAD.:     1.777 HEAT:-230.5417
 CYCLE:   176 TIME:   0.131 TIME LEFT: 16.53W  GRAD.:     2.005 HEAT:-230.5398
 CYCLE:   177 TIME:   0.132 TIME LEFT: 16.53W  GRAD.:     1.695 HEAT:-230.5386
 CYCLE:   178 TIME:   0.131 TIME LEFT: 16.53W  GRAD.:     1.897 HEAT:-230.5204
 CYCLE:   179 TIME:   0.131 TIME LEFT: 16.53W  GRAD.:     1.500 HEAT:-230.5132
 CYCLE:   180 TIME:   0.131 TIME LEFT: 16.53W  GRAD.:     1.294 HEAT:-230.5133
 CYCLE:   181 TIME:   0.132 TIME LEFT: 16.53W  GRAD.:     1.145 HEAT:-230.5045
 CYCLE:   182 TIME:   0.131 TIME LEFT: 16.53W  GRAD.:     1.212 HEAT:-230.5082
 CYCLE:   183 TIME:   0.130 TIME LEFT: 16.53W  GRAD.:     1.370 HEAT:-230.5047
 CYCLE:   184 TIME:   0.131 TIME LEFT: 16.53W  GRAD.:     1.397 HEAT:-230.5100
 CYCLE:   185 TIME:   0.131 TIME LEFT: 16.53W  GRAD.:     1.118 HEAT:-230.5121
 CYCLE:   186 TIME:   0.131 TIME LEFT: 16.53W  GRAD.:     1.110 HEAT:-230.4789
 CYCLE:   187 TIME:   0.130 TIME LEFT: 16.53W  GRAD.:     1.153 HEAT:-230.4869
 CYCLE:   188 TIME:   0.134 TIME LEFT: 16.53W  GRAD.:     0.931 HEAT:-230.4906
 CYCLE:   189 TIME:   0.130 TIME LEFT: 16.53W  GRAD.:     0.917 HEAT:-230.4967
 CYCLE:   190 TIME:   0.130 TIME LEFT: 16.53W  GRAD.:     0.743 HEAT:-230.4931
 CYCLE:   191 TIME:   0.147 TIME LEFT: 16.53W  GRAD.:     0.699 HEAT:-230.4934
 CYCLE:   192 TIME:   0.130 TIME LEFT: 16.53W  GRAD.:     0.863 HEAT:-230.4919
 CYCLE:   193 TIME:   0.131 TIME LEFT: 16.53W  GRAD.:     0.855 HEAT:-230.4944
 CYCLE:   194 TIME:   0.135 TIME LEFT: 16.53W  GRAD.:     1.054 HEAT:-230.5323
 CYCLE:   195 TIME:   0.135 TIME LEFT: 16.53W  GRAD.:     0.959 HEAT:-230.5345
 CYCLE:   196 TIME:   0.132 TIME LEFT: 16.53W  GRAD.:     1.131 HEAT:-230.5339
 CYCLE:   197 TIME:   0.131 TIME LEFT: 16.53W  GRAD.:     1.164 HEAT:-230.5425
 CYCLE:   198 TIME:   0.141 TIME LEFT: 16.53W  GRAD.:     1.270 HEAT:-230.5937
 CYCLE:   199 TIME:   0.140 TIME LEFT: 16.53W  GRAD.:     1.500 HEAT:-230.5931
 CYCLE:   200 TIME:   0.141 TIME LEFT: 16.53W  GRAD.:     1.817 HEAT:-230.6070
 CYCLE:   201 TIME:   0.141 TIME LEFT: 16.53W  GRAD.:     2.961 HEAT:-230.6011
 CYCLE:   202 TIME:   0.132 TIME LEFT: 16.53W  GRAD.:     2.934 HEAT:-230.5605
 CYCLE:   203 TIME:   0.136 TIME LEFT: 16.53W  GRAD.:     4.309 HEAT:-230.4530
 CYCLE:   204 TIME:   0.132 TIME LEFT: 16.53W  GRAD.:     4.376 HEAT:-230.4854
 CYCLE:   205 TIME:   0.136 TIME LEFT: 16.53W  GRAD.:     9.529 HEAT:-230.6481
 CYCLE:   206 TIME:   0.136 TIME LEFT: 16.53W  GRAD.:    17.356 HEAT:-230.6262
 CYCLE:   207 TIME:   0.136 TIME LEFT: 16.53W  GRAD.:    19.166 HEAT:-230.5216
 CYCLE:   208 TIME:   0.131 TIME LEFT: 16.53W  GRAD.:     7.452 HEAT:-230.8344
 CYCLE:   209 TIME:   0.131 TIME LEFT: 16.53W  GRAD.:     7.454 HEAT:-230.9017
 CYCLE:   210 TIME:   0.136 TIME LEFT: 16.53W  GRAD.:    13.472 HEAT:-230.9068
 CYCLE:   211 TIME:   0.132 TIME LEFT: 16.53W  GRAD.:     5.987 HEAT:-231.0650
 CYCLE:   212 TIME:   0.134 TIME LEFT: 16.53W  GRAD.:     5.779 HEAT:-231.1705
 CYCLE:   213 TIME:   0.130 TIME LEFT: 16.53W  GRAD.:     7.059 HEAT:-231.2758
 CYCLE:   214 TIME:   0.130 TIME LEFT: 16.53W  GRAD.:     7.056 HEAT:-231.2852
 CYCLE:   215 TIME:   0.131 TIME LEFT: 16.53W  GRAD.:     6.659 HEAT:-231.3868
 CYCLE:   216 TIME:   0.131 TIME LEFT: 16.53W  GRAD.:     3.906 HEAT:-231.4271
 CYCLE:   217 TIME:   0.131 TIME LEFT: 16.53W  GRAD.:     4.687 HEAT:-231.4577
 CYCLE:   218 TIME:   0.134 TIME LEFT: 16.53W  GRAD.:     4.433 HEAT:-231.4257
 CYCLE:   219 TIME:   0.127 TIME LEFT: 16.53W  GRAD.:     3.218 HEAT:-231.4758
 CYCLE:   220 TIME:   0.131 TIME LEFT: 16.53W  GRAD.:     3.758 HEAT:-231.4889
 CYCLE:   221 TIME:   0.131 TIME LEFT: 16.53W  GRAD.:     4.263 HEAT:-231.5030
 CYCLE:   222 TIME:   0.132 TIME LEFT: 16.53W  GRAD.:     3.562 HEAT:-231.5094
 CYCLE:   223 TIME:   0.131 TIME LEFT: 16.53W  GRAD.:     3.144 HEAT:-231.5138
 CYCLE:   224 TIME:   0.132 TIME LEFT: 16.53W  GRAD.:     2.468 HEAT:-231.5252
 CYCLE:   225 TIME:   0.133 TIME LEFT: 16.53W  GRAD.:     2.748 HEAT:-231.5160
 CYCLE:   226 TIME:   0.131 TIME LEFT: 16.53W  GRAD.:     2.988 HEAT:-231.5295
 CYCLE:   227 TIME:   0.126 TIME LEFT: 16.53W  GRAD.:     2.220 HEAT:-231.5320
 CYCLE:   228 TIME:   0.132 TIME LEFT: 16.53W  GRAD.:     1.649 HEAT:-231.5945
 CYCLE:   229 TIME:   0.131 TIME LEFT: 16.53W  GRAD.:     1.531 HEAT:-231.6013
 CYCLE:   230 TIME:   0.132 TIME LEFT: 16.53W  GRAD.:     1.510 HEAT:-231.6125
 CYCLE:   231 TIME:   0.137 TIME LEFT: 16.53W  GRAD.:     1.232 HEAT:-231.5947
 CYCLE:   232 TIME:   0.132 TIME LEFT: 16.53W  GRAD.:     0.990 HEAT:-231.6109
 CYCLE:   233 TIME:   0.131 TIME LEFT: 16.53W  GRAD.:     0.976 HEAT:-231.6022
 CYCLE:   234 TIME:   0.136 TIME LEFT: 16.53W  GRAD.:     1.662 HEAT:-231.6081
 CYCLE:   235 TIME:   0.131 TIME LEFT: 16.53W  GRAD.:     1.200 HEAT:-231.5584
 CYCLE:   236 TIME:   0.141 TIME LEFT: 16.53W  GRAD.:     1.020 HEAT:-231.5716
 CYCLE:   237 TIME:   0.128 TIME LEFT: 16.53W  GRAD.:     0.650 HEAT:-231.5710
 CYCLE:   238 TIME:   0.137 TIME LEFT: 16.53W  GRAD.:     0.485 HEAT:-231.6219
 CYCLE:   239 TIME:   0.127 TIME LEFT: 16.53W  GRAD.:     0.418 HEAT:-231.6216
 CYCLE:   240 TIME:   0.126 TIME LEFT: 16.53W  GRAD.:     0.389 HEAT:-231.6194
 CYCLE:   241 TIME:   0.131 TIME LEFT: 16.53W  GRAD.:     0.405 HEAT:-231.6147
 CYCLE:   242 TIME:   0.127 TIME LEFT: 16.53W  GRAD.:     0.436 HEAT:-231.6260
 CYCLE:   243 TIME:   0.126 TIME LEFT: 16.53W  GRAD.:     0.333 HEAT:-231.6273
 CYCLE:   244 TIME:   0.131 TIME LEFT: 16.53W  GRAD.:     0.408 HEAT:-231.6324
 CYCLE:   245 TIME:   0.131 TIME LEFT: 16.53W  GRAD.:     0.460 HEAT:-231.6339
 CYCLE:   246 TIME:   0.130 TIME LEFT: 16.53W  GRAD.:     0.404 HEAT:-231.6357
 CYCLE:   247 TIME:   0.132 TIME LEFT: 16.53W  GRAD.:     0.441 HEAT:-231.6608
 CYCLE:   248 TIME:   0.131 TIME LEFT: 16.53W  GRAD.:     0.656 HEAT:-231.6065
 CYCLE:   249 TIME:   0.130 TIME LEFT: 16.53W  GRAD.:     0.748 HEAT:-231.6128
 CYCLE:   250 TIME:   0.133 TIME LEFT: 16.53W  GRAD.:     0.892 HEAT:-231.6603
 CYCLE:   251 TIME:   0.131 TIME LEFT: 16.53W  GRAD.:     0.486 HEAT:-231.6594
 CYCLE:   252 TIME:   0.131 TIME LEFT: 16.53W  GRAD.:     0.356 HEAT:-231.6609
 CYCLE:   253 TIME:   0.131 TIME LEFT: 16.53W  GRAD.:     0.258 HEAT:-231.6598
 CYCLE:   254 TIME:   0.127 TIME LEFT: 16.53W  GRAD.:     0.215 HEAT:-231.6606
 CYCLE:   255 TIME:   0.127 TIME LEFT: 16.53W  GRAD.:     0.222 HEAT:-231.6616
 CYCLE:   256 TIME:   0.125 TIME LEFT: 16.53W  GRAD.:     0.220 HEAT:-231.6603
 CYCLE:   257 TIME:   0.127 TIME LEFT: 16.53W  GRAD.:     0.240 HEAT:-231.6692
 CYCLE:   258 TIME:   0.126 TIME LEFT: 16.53W  GRAD.:     0.205 HEAT:-231.6679
 CYCLE:   259 TIME:   0.127 TIME LEFT: 16.53W  GRAD.:     0.191 HEAT:-231.6674
 CYCLE:   260 TIME:   0.131 TIME LEFT: 16.53W  GRAD.:     0.293 HEAT:-231.6580
 CYCLE:   261 TIME:   0.132 TIME LEFT: 16.53W  GRAD.:     0.272 HEAT:-231.6583
 CYCLE:   262 TIME:   0.130 TIME LEFT: 16.53W  GRAD.:     0.477 HEAT:-231.6080
 CYCLE:   263 TIME:   0.130 TIME LEFT: 16.53W  GRAD.:     0.366 HEAT:-231.6139
 CYCLE:   264 TIME:   0.126 TIME LEFT: 16.53W  GRAD.:     0.234 HEAT:-231.6145
 CYCLE:   265 TIME:   0.127 TIME LEFT: 16.53W  GRAD.:     0.161 HEAT:-231.6185
 CYCLE:   266 TIME:   0.152 TIME LEFT: 16.53W  GRAD.:     0.143 HEAT:-231.6176

     RMS GRADIENT =  0.14319  IS LESS THAN CUTOFF =  0.15000



 -------------------------------------------------------------------------------
 PM6 T=31535638 DUMP=4320 XYZ EPS=78.40 RSOLV=1.30 MULLIK SYBYL +
 CHARGE=0 RELSCF=0.1 LET DDMIN=0.0 GNORM=0.15
 SJ000002349-1_T001S001I001C06: Geometry optimization step



     GEOMETRY OPTIMISED USING EIGENVECTOR FOLLOWING (EF).     
     SCF FIELD WAS ACHIEVED                                   


                               PM6     CALCULATION
                                                       MOPAC2009 (Version: 9.015L)
                                                       Tue Sep  6 16:27:31 2011




          FINAL HEAT OF FORMATION =       -231.61756 KCAL =    -969.08786 KJ
          VAN DER WAALS AREA      =        368.29 SQUARE ANGSTROMS


          TOTAL ENERGY            =      -4629.83563 EV
          ELECTRONIC ENERGY       =      -8695.31340 EV  POINT GROUP:     C1  
          CORE-CORE REPULSION     =       4065.47777 EV
          DIELECTRIC ENERGY       =         -1.40353 EV
          COSMO AREA              =        368.29 SQUARE ANGSTROMS
          COSMO VOLUME            =        456.78 CUBIC ANGSTROMS

          IONIZATION POTENTIAL    =          9.165903 EV
          HOMO LUMO ENERGIES (EV) =         -9.166 -0.958
          NO. OF FILLED LEVELS    =         74
          MOLECULAR WEIGHT        =        382.455

          MOLECULAR DIMENSIONS (Angstroms)

            Atom       Atom       Distance
            H    54    H    38    10.96582
            H    41    H    49    10.82253
            H    44    H    36     5.26069


          SCF CALCULATIONS        =        268
          COMPUTATION TIME        =         36.472 SECONDS




   ATOM   CHEMICAL          X               Y              Z
  NUMBER   SYMBOL      (ANGSTROMS)     (ANGSTROMS)    (ANGSTROMS)
 
     1       C         -0.0473422  *    0.104684  *    0.065335  *
     2       C          1.1529675  *   -0.643817  *    0.718059  *
     3       C          0.9373643  *   -2.107944  *    0.692182  *
     4       C         -0.2472995  *   -2.753020  *    0.591257  *
     5       C         -0.3285501  *   -4.255835  *    0.477485  *
     6       C          0.9758369  *   -4.878789  *    0.919446  *
     7       C          2.1187262  *   -4.156109  *    1.006156  *
     8       C          3.4691060  *   -4.669076  *    1.332066  *
     9       C          3.3850931  *   -5.980886  *    2.169016  *
    10       C          2.3437230  *   -6.930712  *    1.521970  *
    11       C          1.0048193  *   -6.299356  *    1.273135  *
    12       O         -0.0255128  *   -6.972343  *    1.363475  *
    13       O          2.1551777  *   -2.779584  *    0.807866  *
    14       C         -1.4923849  *   -1.969294  *    0.573240  *
    15       O         -2.5974009  *   -2.498587  *    0.559047  *
    16       C         -1.3692834  *   -0.469818  *    0.631965  *
    17       H          2.1060931  *   -0.360612  *    0.216413  *
    18       H          1.2931457  *   -0.303255  *    1.773165  *
    19       H         -1.1497335  *   -4.617543  *    1.162643  *
    20       H          4.0337187  *   -4.852055  *    0.384692  *
    21       H          4.0827968  *   -3.909037  *    1.867000  *
    22       H          2.7348077  *   -7.314291  *    0.549018  *
    23       H          2.2335112  *   -7.845930  *    2.144567  *
    24       H         -1.4900935  *   -0.157094  *    1.696490  *
    25       H         -2.2337327  *    0.003464  *    0.116813  *
    26       C         -0.6624387  *   -4.680051  *   -0.938980  *
    27       C         -1.5476892  *   -5.757379  *   -1.171634  *
    28       C         -1.9489842  *   -6.135308  *   -2.460093  *
    29       C         -1.4102072  *   -5.418838  *   -3.534391  *
    30       H         -2.6443566  *   -6.957671  *   -2.606172  *
    31       C         -0.4970105  *   -4.366699  *   -3.353452  *
    32       C         -0.1377859  *   -4.013685  *   -2.052928  *
    33       H         -0.0883404  *   -3.843253  *   -4.214320  *
    34       H          0.5691345  *   -3.191763  *   -1.902661  *
    35       O         -2.0829358  *   -6.499283  *   -0.158168  *
    36       H         -1.5505149  *   -6.389105  *    0.724284  *
    37       O         -1.7312721  *   -5.705242  *   -4.832294  *
    38       H         -2.3832021  *   -6.468306  *   -4.908710  *
    39       C          0.0507050  *    1.594182  *    0.416758  *
    40       H          0.9813942  *    2.037305  *    0.041081  *
    41       H         -0.7755799  *    2.166178  *   -0.024186  *
    42       H          0.0221563  *    1.769875  *    1.498873  *
    43       C         -0.0070843  *   -0.076750  *   -1.458111  *
    44       H          0.9215798  *    0.319188  *   -1.887789  *
    45       H         -0.0785650  *   -1.128707  *   -1.754209  *
    46       H         -0.8336570  *    0.454057  *   -1.947220  *
    47       C          4.7596004  *   -6.659142  *    2.164374  *
    48       H          5.5308265  *   -6.012135  *    2.601109  *
    49       H          4.7527390  *   -7.586514  *    2.751502  *
    50       H          5.0920963  *   -6.921374  *    1.152653  *
    51       C          2.9657961  *   -5.650483  *    3.607191  *
    52       H          1.9941929  *   -5.146706  *    3.654537  *
    53       H          2.8910335  *   -6.556138  *    4.222314  *
    54       H          3.6936867  *   -4.993065  *    4.099308  *

           Empirical Formula: C23 H26 O5  =    54 atoms



      MOLECULAR POINT GROUP   :   C1  


                  EIGENVALUES  
 -32.27717 -31.94982 -31.78217 -31.12479 -30.95835 -30.57179 -30.22967 -29.85044
 -28.83069 -27.86315 -26.63242 -26.38982 -26.08217 -25.54634 -25.15537 -24.54375
 -24.47544 -24.06185 -23.39889 -22.43962 -22.00859 -21.70186 -21.20408 -20.38683
 -19.75179 -19.35065 -18.48534 -17.87171 -17.61202 -17.30456 -17.01100 -16.87175
 -16.65922 -16.29134 -16.04680 -15.91877 -15.83874 -15.53931 -15.49503 -15.32730
 -15.20300 -15.13206 -14.90391 -14.82261 -14.68736 -14.52063 -14.38477 -14.35314
 -14.23346 -14.07075 -13.75645 -13.57804 -13.46698 -13.40718 -13.27880 -13.11337
 -13.03644 -12.96860 -12.88261 -12.83724 -12.34457 -12.31680 -12.28963 -12.10228
 -12.02101 -11.99508 -11.89975 -11.80068 -10.99529 -10.81553 -10.62949  -9.93782
  -9.79507  -9.16590  -0.95849  -0.36464  -0.11874   0.02818   0.51603   0.95286
   1.11852   1.90381   2.04180   2.24660   2.33658   2.55431   2.79981   2.87509
   3.12613   3.16200   3.27741   3.39029   3.46122   3.53587   3.61610   3.67489
   3.75221   3.84551   3.88816   3.94328   3.98753   4.07723   4.14667   4.19690
   4.25437   4.31761   4.43682   4.55836   4.60579   4.73068   4.78385   5.09358
   5.10955   5.13866   5.19474   5.24863   5.25781   5.31066   5.51457   5.62778
   5.72462   5.76765   5.77291   5.77928   5.79501   5.79887   5.80856   5.83849
   5.87239   5.90968   6.03333   6.04546   6.10385   6.15302   6.74640   6.75475
   6.85167   6.86202


              NET ATOMIC CHARGES AND DIPOLE CONTRIBUTIONS

  ATOM NO.   TYPE          CHARGE      No. of ELECS.   s-Pop       p-Pop       
    1          C           0.326388        3.6736     1.06666     2.60696
    2          C          -0.455008        4.4550     1.11015     3.34485
    3          C           0.444856        3.5551     1.10757     2.44757
    4          C          -0.479198        4.4792     1.11766     3.36153
    5          C           0.141769        3.8582     1.05203     2.80620
    6          C          -0.498444        4.4984     1.11674     3.38170
    7          C           0.465621        3.5344     1.10725     2.42713
    8          C          -0.460397        4.4604     1.11103     3.34937
    9          C           0.328858        3.6711     1.06720     2.60394
   10          C          -0.538594        4.5386     1.12267     3.41592
   11          C           0.671334        3.3287     1.09306     2.23561
   12          O          -0.639658        6.6397     1.85144     4.78822
   13          O          -0.363869        6.3639     1.83600     4.52787
   14          C           0.672365        3.3276     1.09029     2.23734
   15          O          -0.628994        6.6290     1.85218     4.77682
   16          C          -0.545328        4.5453     1.12382     3.42151
   17          H           0.209281        0.7907     0.79072
   18          H           0.215253        0.7847     0.78475
   19          H           0.141251        0.8587     0.85875
   20          H           0.216780        0.7832     0.78322
   21          H           0.210136        0.7899     0.78986
   22          H           0.216857        0.7831     0.78314
   23          H           0.209368        0.7906     0.79063
   24          H           0.213470        0.7865     0.78653
   25          H           0.207661        0.7923     0.79234
   26          C          -0.314513        4.3145     1.10244     3.21208
   27          C           0.438403        3.5616     1.07606     2.48553
   28          C          -0.538506        4.5385     1.11030     3.42820
   29          C           0.434773        3.5652     1.07467     2.49056
   30          H           0.212036        0.7880     0.78796
   31          C          -0.432117        4.4321     1.10472     3.32740
   32          C           0.060607        3.9394     1.10384     2.83556
   33          H           0.195587        0.8044     0.80441
   34          H           0.151169        0.8488     0.84883
   35          O          -0.553322        6.5533     1.81632     4.73700
   36          H           0.382580        0.6174     0.61742
   37          O          -0.516877        6.5169     1.80651     4.71037
   38          H           0.374434        0.6256     0.62557
   39          C          -0.555728        4.5557     1.09591     3.45982
   40          H           0.171796        0.8282     0.82820
   41          H           0.173496        0.8265     0.82650
   42          H           0.170029        0.8300     0.82997
   43          C          -0.556203        4.5562     1.09633     3.45988
   44          H           0.172284        0.8277     0.82772
   45          H           0.160129        0.8399     0.83987
   46          H           0.173221        0.8268     0.82678
   47          C          -0.555827        4.5558     1.09582     3.46001
   48          H           0.172861        0.8271     0.82714
   49          H           0.174457        0.8255     0.82554
   50          H           0.170823        0.8292     0.82918
   51          C          -0.561433        4.5614     1.09663     3.46480
   52          H           0.166493        0.8335     0.83351
   53          H           0.174141        0.8259     0.82586
   54          H           0.173445        0.8266     0.82655
 DIPOLE           X         Y         Z       TOTAL
 POINT-CHG.    12.646     6.940     2.774    14.689
 HYBRID        -0.323    -0.549     0.034     0.638
 SUM           12.323     6.391     2.808    14.163


          CARTESIAN COORDINATES 

    NO.       ATOM               X         Y         Z

     1         C                 -0.0473    0.1047    0.0653
     2         C                  1.1530   -0.6438    0.7181
     3         C                  0.9374   -2.1079    0.6922
     4         C                 -0.2473   -2.7530    0.5913
     5         C                 -0.3286   -4.2558    0.4775
     6         C                  0.9758   -4.8788    0.9194
     7         C                  2.1187   -4.1561    1.0062
     8         C                  3.4691   -4.6691    1.3321
     9         C                  3.3851   -5.9809    2.1690
    10         C                  2.3437   -6.9307    1.5220
    11         C                  1.0048   -6.2994    1.2731
    12         O                 -0.0255   -6.9723    1.3635
    13         O                  2.1552   -2.7796    0.8079
    14         C                 -1.4924   -1.9693    0.5732
    15         O                 -2.5974   -2.4986    0.5590
    16         C                 -1.3693   -0.4698    0.6320
    17         H                  2.1061   -0.3606    0.2164
    18         H                  1.2931   -0.3033    1.7732
    19         H                 -1.1497   -4.6175    1.1626
    20         H                  4.0337   -4.8521    0.3847
    21         H                  4.0828   -3.9090    1.8670
    22         H                  2.7348   -7.3143    0.5490
    23         H                  2.2335   -7.8459    2.1446
    24         H                 -1.4901   -0.1571    1.6965
    25         H                 -2.2337    0.0035    0.1168
    26         C                 -0.6624   -4.6801   -0.9390
    27         C                 -1.5477   -5.7574   -1.1716
    28         C                 -1.9490   -6.1353   -2.4601
    29         C                 -1.4102   -5.4188   -3.5344
    30         H                 -2.6444   -6.9577   -2.6062
    31         C                 -0.4970   -4.3667   -3.3535
    32         C                 -0.1378   -4.0137   -2.0529
    33         H                 -0.0883   -3.8433   -4.2143
    34         H                  0.5691   -3.1918   -1.9027
    35         O                 -2.0829   -6.4993   -0.1582
    36         H                 -1.5505   -6.3891    0.7243
    37         O                 -1.7313   -5.7052   -4.8323
    38         H                 -2.3832   -6.4683   -4.9087
    39         C                  0.0507    1.5942    0.4168
    40         H                  0.9814    2.0373    0.0411
    41         H                 -0.7756    2.1662   -0.0242
    42         H                  0.0222    1.7699    1.4989
    43         C                 -0.0071   -0.0768   -1.4581
    44         H                  0.9216    0.3192   -1.8878
    45         H                 -0.0786   -1.1287   -1.7542
    46         H                 -0.8337    0.4541   -1.9472
    47         C                  4.7596   -6.6591    2.1644
    48         H                  5.5308   -6.0121    2.6011
    49         H                  4.7527   -7.5865    2.7515
    50         H                  5.0921   -6.9214    1.1527
    51         C                  2.9658   -5.6505    3.6072
    52         H                  1.9942   -5.1467    3.6545
    53         H                  2.8910   -6.5561    4.2223
    54         H                  3.6937   -4.9931    4.0993


          ATOMIC ORBITAL ELECTRON POPULATIONS

   1.06666   0.83440   0.88777   0.88478   1.11015   1.15429   0.98633   1.20423
   1.10757   0.79193   0.87874   0.77690   1.11766   1.03162   1.05277   1.27715
   1.05203   0.96191   0.89037   0.95392   1.11674   1.05156   1.06185   1.26829
   1.10725   0.92849   0.73826   0.76038   1.11103   1.03290   1.12984   1.18663
   1.06720   0.88586   0.84136   0.87672   1.12267   1.06428   1.14577   1.20588
   1.09306   0.82612   0.82078   0.58871   1.85144   1.50065   1.70457   1.58300
   1.83600   1.42564   1.31796   1.78427   1.09029   0.80557   0.85453   0.57725
   1.85218   1.43507   1.80038   1.54136   1.12382   1.14611   1.06711   1.20829
   0.79072   0.78475   0.85875   0.78322   0.78986   0.78314   0.79063   0.78653
   0.79234   1.10244   1.12378   1.07391   1.01439   1.07606   0.83472   0.83428
   0.81653   1.11030   1.22821   1.19319   1.00680   1.07467   0.85766   0.87444
   0.75845   0.78796   1.10472   1.13899   1.11371   1.07470   1.10384   0.93589
   0.96962   0.93005   0.80441   0.84883   1.81632   1.64895   1.70976   1.37830
   0.61742   1.80651   1.69142   1.62956   1.38939   0.62557   1.09591   1.20031
   1.06967   1.18984   0.82820   0.82650   0.82997   1.09633   1.20251   1.18750
   1.06987   0.82772   0.83987   0.82678   1.09582   1.08683   1.17441   1.19877
   0.82714   0.82554   0.82918   1.09663   1.18650   1.19518   1.08311   0.83351
   0.82586   0.82655

           MULLIKEN POPULATION ANALYSIS



        MULLIKEN POPULATIONS AND CHARGES

      NO.  ATOM   POPULATION      CHARGE
        1    C     3.638579      0.361421
        2    C     4.573551     -0.573551
        3    C     3.532378      0.467622
        4    C     4.521412     -0.521412
        5    C     3.851525      0.148475
        6    C     4.541714     -0.541714
        7    C     3.509732      0.490268
        8    C     4.579911     -0.579911
        9    C     3.636600      0.363400
       10    C     4.664676     -0.664676
       11    C     3.283681      0.716319
       12    O     6.669103     -0.669103
       13    O     6.403234     -0.403234
       14    C     3.280036      0.719964
       15    O     6.654912     -0.654912
       16    C     4.671328     -0.671328
       17    H     0.736120      0.263880
       18    H     0.730834      0.269166
       19    H     0.819198      0.180802
       20    H     0.729203      0.270797
       21    H     0.734744      0.265256
       22    H     0.729927      0.270073
       23    H     0.735331      0.264669
       24    H     0.733970      0.266030
       25    H     0.737888      0.262112
       26    C     4.340037     -0.340037
       27    C     3.533168      0.466832
       28    C     4.616651     -0.616651
       29    C     3.541191      0.458809
       30    H     0.724262      0.275738
       31    C     4.500820     -0.500820
       32    C     3.963980      0.036020
       33    H     0.744734      0.255266
       34    H     0.802469      0.197531
       35    O     6.599984     -0.599984
       36    H     0.583724      0.416276
       37    O     6.566384     -0.566384
       38    H     0.593081      0.406919
       39    C     4.701942     -0.701942
       40    H     0.780815      0.219185
       41    H     0.778809      0.221191
       42    H     0.782768      0.217232
       43    C     4.699374     -0.699374
       44    H     0.780220      0.219780
       45    H     0.795132      0.204868
       46    H     0.779176      0.220824
       47    C     4.702236     -0.702236
       48    H     0.779554      0.220446
       49    H     0.777650      0.222350
       50    H     0.781783      0.218217
       51    C     4.706757     -0.706757
       52    H     0.786811      0.213189
       53    H     0.778037      0.221963
       54    H     0.778865      0.221135



 TOTAL CPU TIME:            36.50 SECONDS

 == MOPAC DONE ==
 *******************************************************************************
 ** Site#:  958            For non-commercial use only         Version 9.015L **
 *******************************************************************************
 ** Cite this work as: MOPAC2009, James J. P. Stewart, Stewart Computational  **
 ** Chemistry, Version 9.015L web: HTTP://OpenMOPAC.net                       **
 *******************************************************************************
 **                                                                           **
 **                                MOPAC2009                                  **
 **                                                                           **
 *******************************************************************************

                            PM6 CALCULATION RESULTS


 *******************************************************************************
 *  CALCULATION DONE:                                Tue Sep  6 16:27:31 2011  *
 *  PM6      - The PM6 Hamiltonian to be used
 *  GEO-OK   - OVERRIDE INTERATOMIC DISTANCE CHECK
 *
 *
 *
 *                 CHARGE ON SYSTEM =     0
 *
 *
 *
 *  EPS= 78.400
 *  RSOLV=  1.300
 *  OLDGEO   - PREVIOUS GEOMETRY TO BE USED
 *  T=       - A TIME OF 172800.0 SECONDS REQUESTED
 *  DUMP=N   - RESTART FILE WRITTEN EVERY  4320.000 SECONDS
 *  RELSCF   - DEFAULT SCF CRITERION MULTIPLIED BY   0.100    
 *             (DEFAULT SCFCRT= 0.00010)
 *  THERMO   - THERMODYNAMIC QUANTITIES TO BE CALCULATED
 *******************************************************************************
 PM6 DUMP=4320 RELSCF=0.1 THERMO EPS=78.40 RSOLV=1.30 +
 OLDGEO GEO-OK CHARGE=0
 SJ000002349-1_T001S001I001C06: Free energy calculation

   ATOM   CHEMICAL          X               Y              Z
  NUMBER   SYMBOL      (ANGSTROMS)     (ANGSTROMS)    (ANGSTROMS)
 
     1       C         -0.0473422  *    0.104684  *    0.065335  *
     2       C          1.1529675  *   -0.643817  *    0.718059  *
     3       C          0.9373643  *   -2.107944  *    0.692182  *
     4       C         -0.2472995  *   -2.753020  *    0.591257  *
     5       C         -0.3285501  *   -4.255835  *    0.477485  *
     6       C          0.9758369  *   -4.878789  *    0.919446  *
     7       C          2.1187262  *   -4.156109  *    1.006156  *
     8       C          3.4691060  *   -4.669076  *    1.332066  *
     9       C          3.3850931  *   -5.980886  *    2.169016  *
    10       C          2.3437230  *   -6.930712  *    1.521970  *
    11       C          1.0048193  *   -6.299356  *    1.273135  *
    12       O         -0.0255128  *   -6.972343  *    1.363475  *
    13       O          2.1551777  *   -2.779584  *    0.807866  *
    14       C         -1.4923849  *   -1.969294  *    0.573240  *
    15       O         -2.5974009  *   -2.498587  *    0.559047  *
    16       C         -1.3692834  *   -0.469818  *    0.631965  *
    17       H          2.1060931  *   -0.360612  *    0.216413  *
    18       H          1.2931457  *   -0.303255  *    1.773165  *
    19       H         -1.1497335  *   -4.617543  *    1.162643  *
    20       H          4.0337187  *   -4.852055  *    0.384692  *
    21       H          4.0827968  *   -3.909037  *    1.867000  *
    22       H          2.7348077  *   -7.314291  *    0.549018  *
    23       H          2.2335112  *   -7.845930  *    2.144567  *
    24       H         -1.4900935  *   -0.157094  *    1.696490  *
    25       H         -2.2337327  *    0.003464  *    0.116813  *
    26       C         -0.6624387  *   -4.680051  *   -0.938980  *
    27       C         -1.5476892  *   -5.757379  *   -1.171634  *
    28       C         -1.9489842  *   -6.135308  *   -2.460093  *
    29       C         -1.4102072  *   -5.418838  *   -3.534391  *
    30       H         -2.6443566  *   -6.957671  *   -2.606172  *
    31       C         -0.4970105  *   -4.366699  *   -3.353452  *
    32       C         -0.1377859  *   -4.013685  *   -2.052928  *
    33       H         -0.0883404  *   -3.843253  *   -4.214320  *
    34       H          0.5691345  *   -3.191763  *   -1.902661  *
    35       O         -2.0829358  *   -6.499283  *   -0.158168  *
    36       H         -1.5505149  *   -6.389105  *    0.724284  *
    37       O         -1.7312721  *   -5.705242  *   -4.832294  *
    38       H         -2.3832021  *   -6.468306  *   -4.908710  *
    39       C          0.0507050  *    1.594182  *    0.416758  *
    40       H          0.9813942  *    2.037305  *    0.041081  *
    41       H         -0.7755799  *    2.166178  *   -0.024186  *
    42       H          0.0221563  *    1.769875  *    1.498873  *
    43       C         -0.0070843  *   -0.076750  *   -1.458111  *
    44       H          0.9215798  *    0.319188  *   -1.887789  *
    45       H         -0.0785650  *   -1.128707  *   -1.754209  *
    46       H         -0.8336570  *    0.454057  *   -1.947220  *
    47       C          4.7596004  *   -6.659142  *    2.164374  *
    48       H          5.5308265  *   -6.012135  *    2.601109  *
    49       H          4.7527390  *   -7.586514  *    2.751502  *
    50       H          5.0920963  *   -6.921374  *    1.152653  *
    51       C          2.9657961  *   -5.650483  *    3.607191  *
    52       H          1.9941929  *   -5.146706  *    3.654537  *
    53       H          2.8910335  *   -6.556138  *    4.222314  *
    54       H          3.6936867  *   -4.993065  *    4.099308  *
 


          CARTESIAN COORDINATES 

    NO.       ATOM         X         Y         Z

     1         C       -0.0473    0.1047    0.0653
     2         C        1.1530   -0.6438    0.7181
     3         C        0.9374   -2.1079    0.6922
     4         C       -0.2473   -2.7530    0.5913
     5         C       -0.3286   -4.2558    0.4775
     6         C        0.9758   -4.8788    0.9194
     7         C        2.1187   -4.1561    1.0062
     8         C        3.4691   -4.6691    1.3321
     9         C        3.3851   -5.9809    2.1690
    10         C        2.3437   -6.9307    1.5220
    11         C        1.0048   -6.2994    1.2731
    12         O       -0.0255   -6.9723    1.3635
    13         O        2.1552   -2.7796    0.8079
    14         C       -1.4924   -1.9693    0.5732
    15         O       -2.5974   -2.4986    0.5590
    16         C       -1.3693   -0.4698    0.6320
    17         H        2.1061   -0.3606    0.2164
    18         H        1.2931   -0.3033    1.7732
    19         H       -1.1497   -4.6175    1.1626
    20         H        4.0337   -4.8521    0.3847
    21         H        4.0828   -3.9090    1.8670
    22         H        2.7348   -7.3143    0.5490
    23         H        2.2335   -7.8459    2.1446
    24         H       -1.4901   -0.1571    1.6965
    25         H       -2.2337    0.0035    0.1168
    26         C       -0.6624   -4.6801   -0.9390
    27         C       -1.5477   -5.7574   -1.1716
    28         C       -1.9490   -6.1353   -2.4601
    29         C       -1.4102   -5.4188   -3.5344
    30         H       -2.6444   -6.9577   -2.6062
    31         C       -0.4970   -4.3667   -3.3535
    32         C       -0.1378   -4.0137   -2.0529
    33         H       -0.0883   -3.8433   -4.2143
    34         H        0.5691   -3.1918   -1.9027
    35         O       -2.0829   -6.4993   -0.1582
    36         H       -1.5505   -6.3891    0.7243
    37         O       -1.7313   -5.7052   -4.8323
    38         H       -2.3832   -6.4683   -4.9087
    39         C        0.0507    1.5942    0.4168
    40         H        0.9814    2.0373    0.0411
    41         H       -0.7756    2.1662   -0.0242
    42         H        0.0222    1.7699    1.4989
    43         C       -0.0071   -0.0768   -1.4581
    44         H        0.9216    0.3192   -1.8878
    45         H       -0.0786   -1.1287   -1.7542
    46         H       -0.8337    0.4541   -1.9472
    47         C        4.7596   -6.6591    2.1644
    48         H        5.5308   -6.0121    2.6011
    49         H        4.7527   -7.5865    2.7515
    50         H        5.0921   -6.9214    1.1527
    51         C        2.9658   -5.6505    3.6072
    52         H        1.9942   -5.1467    3.6545
    53         H        2.8910   -6.5561    4.2223
    54         H        3.6937   -4.9931    4.0993

 General Reference for PM6:
 "Optimization of Parameters for Semiempirical Methods V: Modification of NDDO Approximations
 and Application to 70 Elements", J. J. P. Stewart, J. Mol. Mod., 13, 1173-1213 (2007)
 URL: http://www.springerlink.com/content/ar33482301010477/fulltext.pdf

           Empirical Formula: C23 H26 O5  =    54 atoms



      MOLECULAR POINT GROUP   :   C1  


      RHF CALCULATION, NO. OF DOUBLY OCCUPIED LEVELS =   74

  SCF CRITERION =    0.1000E-04


          HEAT OF FORMATION =    -231.617513 KCALS/MOLE


          INTERNAL COORDINATE DERIVATIVES

   NUMBER  ATOM       BOND         ANGLE      DIHEDRAL

     1       C
     2       C     -0.018016
     3       C     -0.005972    -0.007547
     4       C     -0.035379     0.101666    -0.028011
     5       C      0.002863    -0.110189     0.003076
     6       C      0.031357     0.019608     0.065532
     7       C     -0.070387    -0.020925    -0.013093
     8       C     -0.007249     0.035692     0.005780
     9       C      0.049225     0.017300    -0.029320
    10       C     -0.008091    -0.027139    -0.008733
    11       C      0.013885     0.033447     0.039828
    12       O      0.032722    -0.062288     0.076686
    13       O     -0.068704     0.052009    -0.101358
    14       C      0.159342    -0.034501     0.006633
    15       O     -0.104548    -0.014586     0.003521
    16       C      0.008475    -0.015781    -0.138371
    17       H      0.106225     0.116354     0.085137
    18       H     -0.073311     0.033293     0.019466
    19       H     -0.005374     0.013749    -0.000330
    20       H      0.055737    -0.034541    -0.002480
    21       H     -0.014596     0.025091     0.038652
    22       H     -0.058360    -0.007656    -0.018222
    23       H      0.057539    -0.009206    -0.042533
    24       H     -0.036038    -0.005428    -0.021576
    25       H     -0.001340     0.014207     0.048016
    26       C     -0.016524    -0.028841    -0.010480
    27       C      0.021003     0.009916    -0.005763
    28       C      0.030079     0.008998    -0.097366
    29       C     -0.007136    -0.037828    -0.057343
    30       H     -0.039452    -0.059138    -0.059655
    31       C     -0.066824     0.073822     0.101601
    32       C      0.017156     0.006049    -0.016596
    33       H     -0.034462     0.093140     0.028750
    34       H      0.037546    -0.076420     0.018811
    35       O      0.020234    -0.025821     0.026109
    36       H     -0.005510     0.008059     0.007051
    37       O     -0.005271    -0.035741     0.080924
    38       H      0.037673     0.009538     0.037126
    39       C     -0.067110    -0.281368     0.186529
    40       H      0.083476     0.230105    -0.125237
    41       H     -0.033003    -0.018655    -0.025279
    42       H     -0.004068     0.012965     0.021424
    43       C      0.005648     0.031362    -0.005509
    44       H      0.014436    -0.019916    -0.002729
    45       H      0.023890    -0.009392    -0.023416
    46       H     -0.005898     0.009416     0.025999
    47       C     -0.003794    -0.021875    -0.008891
    48       H      0.001119     0.010941    -0.006523
    49       H     -0.017921     0.008977    -0.027484
    50       H      0.024180     0.004071    -0.015957
    51       C      0.021678     0.003194     0.017388
    52       H     -0.018116    -0.003936    -0.006074
    53       H     -0.014204    -0.005845    -0.023611
    54       H     -0.022627     0.004089    -0.024735


          GRADIENT NORM =   0.68931


          TIME FOR SCF CALCULATION =    0.24

          TIME FOR DERIVATIVES     =    0.08

          MOLECULAR WEIGHT =  382.46



          ROTATIONAL CONSTANTS IN CM(-1)

          A =    0.00651052   B =    0.00554838   C =    0.00365082



           PRINCIPAL MOMENTS OF INERTIA IN UNITS OF 10**(-40)*GRAM-CM**2

          A =     4299.6187   B =     5045.2130   C =     7667.5240


          ORIENTATION OF MOLECULE IN FORCE CALCULATION

    NO.       ATOM         X         Y         Z

     1          C      -2.2255   -3.3988   -0.4004
     2          C      -0.6676   -3.3988   -0.4004
     3          C      -0.1411   -2.0155   -0.4004
     4          C      -0.7862   -0.9007   -0.8137
     5          C      -0.1744    0.4719   -0.6727
     6          C       1.3150    0.3528   -0.4443
     7          C       1.8847   -0.8087   -0.0412
     8          C       3.3081   -1.0241    0.3056
     9          C       4.2243    0.0131   -0.4108
    10          C       3.6072    1.4277   -0.2575
    11          C       2.1681    1.5205   -0.6738
    12          O       1.7354    2.5563   -1.1862
    13          O       1.1684   -1.9949    0.0817
    14          C      -2.1296   -1.0245   -1.4009
    15          O      -2.7326   -0.0623   -1.8612
    16          C      -2.7306   -2.4031   -1.4738
    17          H      -0.2795   -3.9854    0.4630
    18          H      -0.2811   -3.9479   -1.2937
    19          H      -0.3463    1.0353   -1.6358
    20          H       3.4341   -0.9486    1.4139
    21          H       3.6399   -2.0604    0.0683
    22          H       3.6852    1.7612    0.8052
    23          H       4.2229    2.1675   -0.8151
    24          H      -2.5279   -2.8123   -2.4921
    25          H      -3.8398   -2.3375   -1.4303
    26          C      -0.8213    1.2456    0.4590
    27          C      -1.0833    2.6279    0.3204
    28          C      -1.7507    3.3685    1.3053
    29          C      -2.1299    2.6907    2.4691
    30          H      -1.9526    4.4269    1.1626
    31          C      -1.8560    1.3271    2.6676
    32          C      -1.2040    0.6250    1.6542
    33          H      -2.1533    0.8387    3.5923
    34          H      -0.9913   -0.4388    1.7985
    35          O      -0.7146    3.3372   -0.7863
    36          H       0.0124    2.8444   -1.3367
    37          O      -2.7835    3.3169    3.4940
    38          H      -2.9512    4.2914    3.3059
    39          C      -2.7183   -4.8096   -0.7447
    40          H      -2.3716   -5.5486   -0.0117
    41          H      -3.8145   -4.8607   -0.7551
    42          H      -2.3714   -5.1434   -1.7300
    43          C      -2.7456   -2.9866    0.9834
    44          H      -2.4003   -3.6738    1.7660
    45          H      -2.4193   -1.9807    1.2683
    46          H      -3.8424   -2.9930    1.0179
    47          C       5.6073   -0.0095    0.2497
    48          H       6.0736   -1.0002    0.1769
    49          H       6.2935    0.7009   -0.2289
    50          H       5.5656    0.2510    1.3143
    51          C       4.3451   -0.3441   -1.8978
    52          H       3.3743   -0.3573   -2.4051
    53          H       4.9803    0.3728   -2.4332
    54          H       4.7962   -1.3343   -2.0401


    FIRST DERIVATIVES WILL BE USED IN THE CALCULATION OF SECOND DERIVATIVES

          ESTIMATED TIME TO COMPLETE CALCULATION =      105.28 SECONDS

    FOR POINT-GROUP C1   THERE ARE   1 UNIQUE SYMMETRY FUNCTIONS.

 STEP:   1 TIME =     0.24 SECS, INTEGRAL =      0.24 TIME LEFT: 172799.44
 STEP:   2 TIME =     0.23 SECS, INTEGRAL =      0.47 TIME LEFT: 172799.20
 STEP:   3 TIME =     0.23 SECS, INTEGRAL =      0.70 TIME LEFT: 172798.98
 STEP:   4 TIME =     0.23 SECS, INTEGRAL =      0.93 TIME LEFT: 172798.75
 STEP:   5 TIME =     0.24 SECS, INTEGRAL =      1.17 TIME LEFT: 172798.51
 STEP:   6 TIME =     0.23 SECS, INTEGRAL =      1.40 TIME LEFT: 172798.27
 STEP:   7 TIME =     0.23 SECS, INTEGRAL =      1.63 TIME LEFT: 172798.04
 STEP:   8 TIME =     0.25 SECS, INTEGRAL =      1.88 TIME LEFT: 172797.79
 STEP:   9 TIME =     0.23 SECS, INTEGRAL =      2.12 TIME LEFT: 172797.56
 STEP:  10 TIME =     0.25 SECS, INTEGRAL =      2.36 TIME LEFT: 172797.31
 STEP:  11 TIME =     0.23 SECS, INTEGRAL =      2.59 TIME LEFT: 172797.08
 STEP:  12 TIME =     0.24 SECS, INTEGRAL =      2.83 TIME LEFT: 172796.85
 STEP:  13 TIME =     0.24 SECS, INTEGRAL =      3.07 TIME LEFT: 172796.60
 STEP:  14 TIME =     0.24 SECS, INTEGRAL =      3.31 TIME LEFT: 172796.37
 STEP:  15 TIME =     0.23 SECS, INTEGRAL =      3.54 TIME LEFT: 172796.14
 STEP:  16 TIME =     0.23 SECS, INTEGRAL =      3.77 TIME LEFT: 172795.91
 STEP:  17 TIME =     0.25 SECS, INTEGRAL =      4.01 TIME LEFT: 172795.66
 STEP:  18 TIME =     0.24 SECS, INTEGRAL =      4.26 TIME LEFT: 172795.42
 STEP:  19 TIME =     0.24 SECS, INTEGRAL =      4.49 TIME LEFT: 172795.18
 STEP:  20 TIME =     0.24 SECS, INTEGRAL =      4.73 TIME LEFT: 172794.94
 STEP:  21 TIME =     0.23 SECS, INTEGRAL =      4.96 TIME LEFT: 172794.71
 STEP:  22 TIME =     0.24 SECS, INTEGRAL =      5.20 TIME LEFT: 172794.48
 STEP:  23 TIME =     0.23 SECS, INTEGRAL =      5.43 TIME LEFT: 172794.25
 STEP:  24 TIME =     0.23 SECS, INTEGRAL =      5.66 TIME LEFT: 172794.02
 STEP:  25 TIME =     0.23 SECS, INTEGRAL =      5.89 TIME LEFT: 172793.79
 STEP:  26 TIME =     0.23 SECS, INTEGRAL =      6.12 TIME LEFT: 172793.56
 STEP:  27 TIME =     0.23 SECS, INTEGRAL =      6.35 TIME LEFT: 172793.33
 STEP:  28 TIME =     0.23 SECS, INTEGRAL =      6.58 TIME LEFT: 172793.10
 STEP:  29 TIME =     0.23 SECS, INTEGRAL =      6.81 TIME LEFT: 172792.87
 STEP:  30 TIME =     0.23 SECS, INTEGRAL =      7.03 TIME LEFT: 172792.64
 STEP:  31 TIME =     0.24 SECS, INTEGRAL =      7.27 TIME LEFT: 172792.40
 STEP:  32 TIME =     0.24 SECS, INTEGRAL =      7.51 TIME LEFT: 172792.16
 STEP:  33 TIME =     0.24 SECS, INTEGRAL =      7.76 TIME LEFT: 172791.92
 STEP:  34 TIME =     0.23 SECS, INTEGRAL =      7.99 TIME LEFT: 172791.69
 STEP:  35 TIME =     0.23 SECS, INTEGRAL =      8.21 TIME LEFT: 172791.46
 STEP:  36 TIME =     0.23 SECS, INTEGRAL =      8.44 TIME LEFT: 172791.24
 STEP:  37 TIME =     0.23 SECS, INTEGRAL =      8.67 TIME LEFT: 172791.01
 STEP:  38 TIME =     0.23 SECS, INTEGRAL =      8.90 TIME LEFT: 172790.77
 STEP:  39 TIME =     0.23 SECS, INTEGRAL =      9.13 TIME LEFT: 172790.55
 STEP:  40 TIME =     0.23 SECS, INTEGRAL =      9.36 TIME LEFT: 172790.31
 STEP:  41 TIME =     0.23 SECS, INTEGRAL =      9.59 TIME LEFT: 172790.08
 STEP:  42 TIME =     0.24 SECS, INTEGRAL =      9.84 TIME LEFT: 172789.84
 STEP:  43 TIME =     0.23 SECS, INTEGRAL =     10.06 TIME LEFT: 172789.61
 STEP:  44 TIME =     0.23 SECS, INTEGRAL =     10.29 TIME LEFT: 172789.38
 STEP:  45 TIME =     0.23 SECS, INTEGRAL =     10.52 TIME LEFT: 172789.16
 STEP:  46 TIME =     0.23 SECS, INTEGRAL =     10.75 TIME LEFT: 172788.93
 STEP:  47 TIME =     0.23 SECS, INTEGRAL =     10.97 TIME LEFT: 172788.70
 STEP:  48 TIME =     0.23 SECS, INTEGRAL =     11.20 TIME LEFT: 172788.47
 STEP:  49 TIME =     0.22 SECS, INTEGRAL =     11.42 TIME LEFT: 172788.25
 STEP:  50 TIME =     0.22 SECS, INTEGRAL =     11.64 TIME LEFT: 172788.03
 STEP:  51 TIME =     0.22 SECS, INTEGRAL =     11.86 TIME LEFT: 172787.82
 STEP:  52 TIME =     0.22 SECS, INTEGRAL =     12.08 TIME LEFT: 172787.60
 STEP:  53 TIME =     0.22 SECS, INTEGRAL =     12.29 TIME LEFT: 172787.38
 STEP:  54 TIME =     0.22 SECS, INTEGRAL =     12.51 TIME LEFT: 172787.16
 STEP:  55 TIME =     0.22 SECS, INTEGRAL =     12.73 TIME LEFT: 172786.94
 STEP:  56 TIME =     0.22 SECS, INTEGRAL =     12.95 TIME LEFT: 172786.73
 STEP:  57 TIME =     0.22 SECS, INTEGRAL =     13.17 TIME LEFT: 172786.51
 STEP:  58 TIME =     0.22 SECS, INTEGRAL =     13.39 TIME LEFT: 172786.28
 STEP:  59 TIME =     0.22 SECS, INTEGRAL =     13.61 TIME LEFT: 172786.06
 STEP:  60 TIME =     0.22 SECS, INTEGRAL =     13.83 TIME LEFT: 172785.84
 STEP:  61 TIME =     0.22 SECS, INTEGRAL =     14.05 TIME LEFT: 172785.62
 STEP:  62 TIME =     0.22 SECS, INTEGRAL =     14.27 TIME LEFT: 172785.40
 STEP:  63 TIME =     0.22 SECS, INTEGRAL =     14.49 TIME LEFT: 172785.18
 STEP:  64 TIME =     0.22 SECS, INTEGRAL =     14.72 TIME LEFT: 172784.96
 STEP:  65 TIME =     0.22 SECS, INTEGRAL =     14.94 TIME LEFT: 172784.73
 STEP:  66 TIME =     0.22 SECS, INTEGRAL =     15.16 TIME LEFT: 172784.52
 STEP:  67 TIME =     0.22 SECS, INTEGRAL =     15.38 TIME LEFT: 172784.30
 STEP:  68 TIME =     0.22 SECS, INTEGRAL =     15.60 TIME LEFT: 172784.08
 STEP:  69 TIME =     0.22 SECS, INTEGRAL =     15.81 TIME LEFT: 172783.86
 STEP:  70 TIME =     0.22 SECS, INTEGRAL =     16.04 TIME LEFT: 172783.64
 STEP:  71 TIME =     0.22 SECS, INTEGRAL =     16.25 TIME LEFT: 172783.42
 STEP:  72 TIME =     0.22 SECS, INTEGRAL =     16.47 TIME LEFT: 172783.20
 STEP:  73 TIME =     0.22 SECS, INTEGRAL =     16.69 TIME LEFT: 172782.99
 STEP:  74 TIME =     0.22 SECS, INTEGRAL =     16.91 TIME LEFT: 172782.76
 STEP:  75 TIME =     0.23 SECS, INTEGRAL =     17.14 TIME LEFT: 172782.54
 STEP:  76 TIME =     0.24 SECS, INTEGRAL =     17.37 TIME LEFT: 172782.30
 STEP:  77 TIME =     0.25 SECS, INTEGRAL =     17.62 TIME LEFT: 172782.05
 STEP:  78 TIME =     0.24 SECS, INTEGRAL =     17.87 TIME LEFT: 172781.81
 STEP:  79 TIME =     0.23 SECS, INTEGRAL =     18.09 TIME LEFT: 172781.58
 STEP:  80 TIME =     0.24 SECS, INTEGRAL =     18.34 TIME LEFT: 172781.34
 STEP:  81 TIME =     0.23 SECS, INTEGRAL =     18.57 TIME LEFT: 172781.10
 STEP:  82 TIME =     0.24 SECS, INTEGRAL =     18.81 TIME LEFT: 172780.86
 STEP:  83 TIME =     0.22 SECS, INTEGRAL =     19.04 TIME LEFT: 172780.64
 STEP:  84 TIME =     0.25 SECS, INTEGRAL =     19.29 TIME LEFT: 172780.39
 STEP:  85 TIME =     0.24 SECS, INTEGRAL =     19.53 TIME LEFT: 172780.15
 STEP:  86 TIME =     0.25 SECS, INTEGRAL =     19.78 TIME LEFT: 172779.90
 STEP:  87 TIME =     0.24 SECS, INTEGRAL =     20.02 TIME LEFT: 172779.66
 STEP:  88 TIME =     0.23 SECS, INTEGRAL =     20.25 TIME LEFT: 172779.43
 STEP:  89 TIME =     0.22 SECS, INTEGRAL =     20.46 TIME LEFT: 172779.21
 STEP:  90 TIME =     0.22 SECS, INTEGRAL =     20.68 TIME LEFT: 172778.99
 STEP:  91 TIME =     0.23 SECS, INTEGRAL =     20.91 TIME LEFT: 172778.77
 STEP:  92 TIME =     0.24 SECS, INTEGRAL =     21.15 TIME LEFT: 172778.53
 STEP:  93 TIME =     0.23 SECS, INTEGRAL =     21.38 TIME LEFT: 172778.30
 STEP:  94 TIME =     0.23 SECS, INTEGRAL =     21.61 TIME LEFT: 172778.07
 STEP:  95 TIME =     0.22 SECS, INTEGRAL =     21.83 TIME LEFT: 172777.84
 STEP:  96 TIME =     0.25 SECS, INTEGRAL =     22.08 TIME LEFT: 172777.59
 STEP:  97 TIME =     0.23 SECS, INTEGRAL =     22.32 TIME LEFT: 172777.36
 STEP:  98 TIME =     0.22 SECS, INTEGRAL =     22.54 TIME LEFT: 172777.14
 STEP:  99 TIME =     0.22 SECS, INTEGRAL =     22.75 TIME LEFT: 172776.92
 STEP: 100 TIME =     0.22 SECS, INTEGRAL =     22.97 TIME LEFT: 172776.70
 STEP: 101 TIME =     0.22 SECS, INTEGRAL =     23.19 TIME LEFT: 172776.49
 STEP: 102 TIME =     0.22 SECS, INTEGRAL =     23.41 TIME LEFT: 172776.27
 STEP: 103 TIME =     0.23 SECS, INTEGRAL =     23.63 TIME LEFT: 172776.04
 STEP: 104 TIME =     0.23 SECS, INTEGRAL =     23.86 TIME LEFT: 172775.81
 STEP: 105 TIME =     0.27 SECS, INTEGRAL =     24.13 TIME LEFT: 172775.54
 STEP: 106 TIME =     0.25 SECS, INTEGRAL =     24.38 TIME LEFT: 172775.29
 STEP: 107 TIME =     0.23 SECS, INTEGRAL =     24.61 TIME LEFT: 172775.07
 STEP: 108 TIME =     0.23 SECS, INTEGRAL =     24.83 TIME LEFT: 172774.84
 STEP: 109 TIME =     0.23 SECS, INTEGRAL =     25.06 TIME LEFT: 172774.61
 STEP: 110 TIME =     0.23 SECS, INTEGRAL =     25.29 TIME LEFT: 172774.38
 STEP: 111 TIME =     0.24 SECS, INTEGRAL =     25.53 TIME LEFT: 172774.14
 STEP: 112 TIME =     0.22 SECS, INTEGRAL =     25.76 TIME LEFT: 172773.92
 STEP: 113 TIME =     0.22 SECS, INTEGRAL =     25.98 TIME LEFT: 172773.69
 STEP: 114 TIME =     0.22 SECS, INTEGRAL =     26.20 TIME LEFT: 172773.47
 STEP: 115 TIME =     0.23 SECS, INTEGRAL =     26.43 TIME LEFT: 172773.25
 STEP: 116 TIME =     0.23 SECS, INTEGRAL =     26.66 TIME LEFT: 172773.02
 STEP: 117 TIME =     0.23 SECS, INTEGRAL =     26.88 TIME LEFT: 172772.79
 STEP: 118 TIME =     0.22 SECS, INTEGRAL =     27.10 TIME LEFT: 172772.58
 STEP: 119 TIME =     0.22 SECS, INTEGRAL =     27.32 TIME LEFT: 172772.36
 STEP: 120 TIME =     0.22 SECS, INTEGRAL =     27.54 TIME LEFT: 172772.14
 STEP: 121 TIME =     0.22 SECS, INTEGRAL =     27.75 TIME LEFT: 172771.92
 STEP: 122 TIME =     0.22 SECS, INTEGRAL =     27.97 TIME LEFT: 172771.70
 STEP: 123 TIME =     0.22 SECS, INTEGRAL =     28.19 TIME LEFT: 172771.48
 STEP: 124 TIME =     0.22 SECS, INTEGRAL =     28.41 TIME LEFT: 172771.26
 STEP: 125 TIME =     0.21 SECS, INTEGRAL =     28.63 TIME LEFT: 172771.05
 STEP: 126 TIME =     0.22 SECS, INTEGRAL =     28.84 TIME LEFT: 172770.83
 STEP: 127 TIME =     0.23 SECS, INTEGRAL =     29.07 TIME LEFT: 172770.60
 STEP: 128 TIME =     0.23 SECS, INTEGRAL =     29.30 TIME LEFT: 172770.37
 STEP: 129 TIME =     0.23 SECS, INTEGRAL =     29.53 TIME LEFT: 172770.15
 STEP: 130 TIME =     0.22 SECS, INTEGRAL =     29.75 TIME LEFT: 172769.92
 STEP: 131 TIME =     0.22 SECS, INTEGRAL =     29.97 TIME LEFT: 172769.71
 STEP: 132 TIME =     0.22 SECS, INTEGRAL =     30.18 TIME LEFT: 172769.49
 STEP: 133 TIME =     0.22 SECS, INTEGRAL =     30.40 TIME LEFT: 172769.27
 STEP: 134 TIME =     0.22 SECS, INTEGRAL =     30.62 TIME LEFT: 172769.05
 STEP: 135 TIME =     0.22 SECS, INTEGRAL =     30.84 TIME LEFT: 172768.84
 STEP: 136 TIME =     0.22 SECS, INTEGRAL =     31.05 TIME LEFT: 172768.62
 STEP: 137 TIME =     0.22 SECS, INTEGRAL =     31.28 TIME LEFT: 172768.40
 STEP: 138 TIME =     0.22 SECS, INTEGRAL =     31.50 TIME LEFT: 172768.18
 STEP: 139 TIME =     0.23 SECS, INTEGRAL =     31.72 TIME LEFT: 172767.95
 STEP: 140 TIME =     0.23 SECS, INTEGRAL =     31.95 TIME LEFT: 172767.72
 STEP: 141 TIME =     0.23 SECS, INTEGRAL =     32.18 TIME LEFT: 172767.50
 STEP: 142 TIME =     0.22 SECS, INTEGRAL =     32.40 TIME LEFT: 172767.27
 STEP: 143 TIME =     0.25 SECS, INTEGRAL =     32.65 TIME LEFT: 172767.03
 STEP: 144 TIME =     0.24 SECS, INTEGRAL =     32.89 TIME LEFT: 172766.78
 STEP: 145 TIME =     0.22 SECS, INTEGRAL =     33.11 TIME LEFT: 172766.57
 STEP: 146 TIME =     0.22 SECS, INTEGRAL =     33.33 TIME LEFT: 172766.35
 STEP: 147 TIME =     0.22 SECS, INTEGRAL =     33.54 TIME LEFT: 172766.13
 STEP: 148 TIME =     0.22 SECS, INTEGRAL =     33.76 TIME LEFT: 172765.91
 STEP: 149 TIME =     0.22 SECS, INTEGRAL =     33.98 TIME LEFT: 172765.69
 STEP: 150 TIME =     0.22 SECS, INTEGRAL =     34.20 TIME LEFT: 172765.48
 STEP: 151 TIME =     0.28 SECS, INTEGRAL =     34.48 TIME LEFT: 172765.20
 STEP: 152 TIME =     0.23 SECS, INTEGRAL =     34.71 TIME LEFT: 172764.97
 STEP: 153 TIME =     0.23 SECS, INTEGRAL =     34.94 TIME LEFT: 172764.74
 STEP: 154 TIME =     0.23 SECS, INTEGRAL =     35.16 TIME LEFT: 172764.51
 STEP: 155 TIME =     0.22 SECS, INTEGRAL =     35.38 TIME LEFT: 172764.29
 STEP: 156 TIME =     0.23 SECS, INTEGRAL =     35.61 TIME LEFT: 172764.06
 STEP: 157 TIME =     0.22 SECS, INTEGRAL =     35.83 TIME LEFT: 172763.85
 STEP: 158 TIME =     0.22 SECS, INTEGRAL =     36.05 TIME LEFT: 172763.63
 STEP: 159 TIME =     0.22 SECS, INTEGRAL =     36.26 TIME LEFT: 172763.41
 STEP: 160 TIME =     0.22 SECS, INTEGRAL =     36.48 TIME LEFT: 172763.20
 STEP: 161 TIME =     0.22 SECS, INTEGRAL =     36.70 TIME LEFT: 172762.98
 STEP: 162 TIME =     0.22 SECS, INTEGRAL =     36.92 TIME LEFT: 172762.76

(To convert to Hartree/Bohr^2, multiply by (10^(-21) x N x a0^2)/(4.184 x 627.51) = 0.0642)


           FORCE MATRIX IN MILLIDYNES/ANGSTROM


                  C  1       C  2       C  3       C  4       C  5       C  6
 ------------------------------------------------------------------------------
     C    1  13.227404
     C    2   2.703037  11.922156
     C    3   0.821506   3.856988  15.923062
     C    4   0.108354   0.848089   7.730928  16.082398
     C    5   0.021027   0.114515   0.930092   3.610931  12.906471
     C    6   0.021475   0.034310   0.438460   0.825738   3.523502  15.868915
     C    7   0.034735   0.133295   1.626303   0.380490   0.943180   7.413727
     C    8   0.011049   0.035331   0.135987   0.031683   0.111378   0.884345
     C    9   0.004158   0.010217   0.036187   0.018783   0.021606   0.136669
     C   10   0.004641   0.008783   0.046166   0.040589   0.048652   0.762041
     C   11   0.019980   0.036302   0.347136   0.170218   0.717050   3.663005
     O   12   0.010194   0.017303   0.146832   0.078540   0.084546   1.742210
     O   13   0.071142   0.972308   3.584409   1.562512   0.264371   1.673612
     C   14   0.800748   0.197291   1.803596   3.533001   0.695733   0.206781
     O   15   0.120225   0.097306   0.407592   1.725311   0.065540   0.086270
     C   16   2.882138   0.721881   0.079568   0.748223   0.044782   0.044852
     H   17   0.589114   3.267211   0.716277   0.062195   0.016247   0.012968
     H   18   0.590311   3.200043   0.726576   0.053212   0.018596   0.014106
     H   19   0.005140   0.013376   0.042039   0.639284   3.129420   0.652804
     H   20   0.002046   0.004037   0.020563   0.011679   0.019800   0.065752
     H   21   0.002311   0.011070   0.024864   0.012041   0.015314   0.066542
     H   22   0.001566   0.002599   0.015283   0.009174   0.006545   0.072447
     H   23   0.001033   0.001602   0.008815   0.005546   0.007039   0.051950
     H   24   0.611296   0.018792   0.032025   0.048181   0.003989   0.007746
     H   25   0.609779   0.047109   0.029554   0.053880   0.006875   0.007489
     C   26   0.009511   0.022976   0.085489   0.741336   3.438868   0.757795
     C   27   0.006884   0.015409   0.046453   0.063240   0.745821   0.063453
     C   28   0.002867   0.006957   0.017835   0.028563   0.066385   0.019029
     C   29   0.007721   0.016275   0.040397   0.051438   0.100268   0.040739
     H   30   0.000943   0.002143   0.005401   0.006578   0.011739   0.003726
     C   31   0.007161   0.016859   0.044682   0.048774   0.136797   0.040786
     C   32   0.006894   0.015317   0.047370   0.046230   0.791921   0.038951
     H   33   0.001296   0.002796   0.006193   0.008047   0.013543   0.004693
     H   34   0.005074   0.005544   0.031371   0.023746   0.036469   0.013948
     O   35   0.005095   0.010620   0.033577   0.037860   0.118067   0.065542
     H   36   0.003283   0.005688   0.030961   0.028765   0.115713   0.098751
     O   37   0.005593   0.011181   0.027223   0.037189   0.078955   0.032325
     H   38   0.000906   0.002281   0.005717   0.009056   0.017427   0.007507
     C   39   3.234824   0.702054   0.053825   0.029705   0.007442   0.013299
     H   40   0.618837   0.015301   0.006570   0.004917   0.001294   0.002241
     H   41   0.620430   0.042647   0.011727   0.005587   0.001082   0.001538
     H   42   0.610498   0.017242   0.005923   0.004695   0.001147   0.002320


                  C  1       C  2       C  3       C  4       C  5       C  6
 ------------------------------------------------------------------------------
     C   43   3.201162   0.730952   0.052645   0.064801   0.010272   0.015034
     H   44   0.620593   0.016128   0.014085   0.007561   0.001755   0.003142
     H   45   0.608188   0.007159   0.044253   0.012793   0.004107   0.005072
     H   46   0.623924   0.048028   0.011270   0.007863   0.001398   0.002843
     C   47   0.002521   0.005322   0.021145   0.011193   0.009032   0.033911
[...]
 T-DIPOLE    1.0535        C 51 --  H 53          +36.5% ( 62.3%)    96.8%
 TRAVEL      0.1313        C 47 --  H 49           +8.1% ( 29.3%)    98.7%
 RED. MASS   0.3716        C 47 --  H 50           +5.8% ( 24.8%)    96.2%
 EFF. MASS   1.4573

 VIBRATION  143  143A       ATOM PAIR        ENERGY CONTRIBUTION    RADIAL
 FREQ.      2684.46        C 47 --  H 48          +62.9% ( 81.8%)    99.3%
 T-DIPOLE    0.8186        C 47 --  H 50          +25.1% ( 51.7%)    91.6%
 TRAVEL      0.1312        C 47 --  H 49          +10.4% ( 33.3%)    76.5%
 RED. MASS   0.4874        C  9 --  C 47           +0.9% (  9.9%)     0.0%
 EFF. MASS   1.4601

 VIBRATION  144  144A       ATOM PAIR        ENERGY CONTRIBUTION    RADIAL
 FREQ.      2684.90        C 43 --  H 45          +56.5% ( 77.5%)    99.5%
 T-DIPOLE    0.8617        C 43 --  H 46          +14.8% ( 39.6%)    86.8%
 TRAVEL      0.1307        C 43 --  H 44          +12.2% ( 36.0%)    83.5%
 RED. MASS   0.3797        C 39 --  H 42           +9.4% ( 31.6%)    99.5%
 EFF. MASS   1.4695

 VIBRATION  145  145A       ATOM PAIR        ENERGY CONTRIBUTION    RADIAL
 FREQ.      2690.04        C 51 --  H 52          +59.4% ( 79.3%)    99.4%
 T-DIPOLE    1.2681        C 51 --  H 53          +18.4% ( 44.1%)    88.4%
 TRAVEL      0.1309        C 51 --  H 54          +13.9% ( 38.4%)    83.9%
 RED. MASS   0.4215        C 10 --  H 23           +3.7% ( 19.7%)   100.0%
 EFF. MASS   1.4618

 VIBRATION  146  146A       ATOM PAIR        ENERGY CONTRIBUTION    RADIAL
 FREQ.      2718.59        C 32 --  H 34          +90.2% ( 96.0%)   100.0%
 T-DIPOLE    1.0246        C 31 --  H 33           +4.6% ( 21.7%)    99.6%
 TRAVEL      0.1333        C 26 --  C 32           +1.0% ( 10.3%)    20.2%
 RED. MASS   0.7931        C 31 --  C 32           +1.0% ( 10.2%)    10.3%
 EFF. MASS   1.3956

 VIBRATION  147  147A       ATOM PAIR        ENERGY CONTRIBUTION    RADIAL
 FREQ.      2720.23        C  2 --  H 17          +48.4% ( 68.4%)    97.7%
 T-DIPOLE    0.8196        C  2 --  H 18          +34.2% ( 57.4%)    95.4%
 TRAVEL      0.1404        C  8 --  H 21           +5.9% ( 23.8%)    97.8%
 RED. MASS   0.3515        C  8 --  H 20           +4.0% ( 19.6%)    95.2%
 EFF. MASS   1.2568

 VIBRATION  148  148A       ATOM PAIR        ENERGY CONTRIBUTION    RADIAL
 FREQ.      2722.27        C  8 --  H 21          +49.4% ( 69.0%)    97.8%
 T-DIPOLE    1.6307        C  8 --  H 20          +33.8% ( 57.1%)    95.3%
 TRAVEL      0.1405        C  2 --  H 17           +5.0% ( 22.0%)    97.7%
 RED. MASS   0.3558        C  2 --  H 18           +3.6% ( 18.5%)    95.6%
 EFF. MASS   1.2539

 VIBRATION  149  149A       ATOM PAIR        ENERGY CONTRIBUTION    RADIAL
 FREQ.      2732.73        C 16 --  H 25          +46.2% ( 66.7%)    96.9%
 T-DIPOLE    1.1237        C 16 --  H 24          +45.7% ( 66.3%)    96.5%
 TRAVEL      0.1399        C  2 --  H 17           +3.0% ( 16.9%)    97.3%
 RED. MASS   0.4166        C  2 --  H 18           +2.4% ( 15.1%)    95.0%
 EFF. MASS   1.2602

 VIBRATION  150  150A       ATOM PAIR        ENERGY CONTRIBUTION    RADIAL
 FREQ.      2737.86        C 10 --  H 22          +47.1% ( 67.4%)    96.8%
 T-DIPOLE    0.8730        C 10 --  H 23          +41.9% ( 63.5%)    96.5%
 TRAVEL      0.1398        C  8 --  H 21           +2.4% ( 15.3%)    97.3%
 RED. MASS   0.3929        C 51 --  H 54           +2.2% ( 14.7%)    97.3%
 EFF. MASS   1.2596

 VIBRATION  151  151A       ATOM PAIR        ENERGY CONTRIBUTION    RADIAL
 FREQ.      2746.19        C 31 --  H 33          +63.2% ( 80.3%)   100.0%
 T-DIPOLE    1.8627        C 28 --  H 30          +32.7% ( 57.7%)   100.0%
 TRAVEL      0.1334        C 32 --  H 34           +1.9% ( 14.0%)    99.1%
 RED. MASS   0.4919        C 31 --  C 32           +0.7% (  8.6%)    42.4%
 EFF. MASS   1.3801

 VIBRATION  152  152A       ATOM PAIR        ENERGY CONTRIBUTION    RADIAL
 FREQ.      2754.07        C 28 --  H 30          +64.8% ( 81.2%)   100.0%
 T-DIPOLE    0.8932        C 31 --  H 33          +29.8% ( 55.1%)   100.0%
 TRAVEL      0.1313        C 32 --  H 34           +2.7% ( 16.7%)    99.7%
 RED. MASS   0.4950        C 28 --  C 29           +0.8% (  8.8%)    28.1%
 EFF. MASS   1.4206

 VIBRATION  153  153A       ATOM PAIR        ENERGY CONTRIBUTION    RADIAL
 FREQ.      2784.84        C 39 --  H 42          +19.6% ( 42.6%)    96.1%
 T-DIPOLE    0.6407        C 39 --  H 41          +18.9% ( 41.7%)    95.9%
 TRAVEL      0.1459        C 39 --  H 40          +16.7% ( 39.2%)    95.2%
 RED. MASS   0.1647        C 43 --  H 45          +15.0% ( 37.2%)    95.7%
 EFF. MASS   1.1382        C 43 --  H 46          +14.9% ( 37.1%)    95.9%
                           C 43 --  H 44          +14.4% ( 36.4%)    95.7%

 VIBRATION  154  154A       ATOM PAIR        ENERGY CONTRIBUTION    RADIAL
 FREQ.      2788.15        C 47 --  H 48          +24.1% ( 47.2%)    95.9%
 T-DIPOLE    0.8110        C 47 --  H 50          +23.2% ( 46.3%)    95.5%
 TRAVEL      0.1456        C 47 --  H 49          +22.5% ( 45.6%)    95.4%
 RED. MASS   0.1872        C 51 --  H 52          +10.3% ( 30.8%)    96.0%
 EFF. MASS   1.1404

 VIBRATION  155  155A       ATOM PAIR        ENERGY CONTRIBUTION    RADIAL
 FREQ.      2789.73        C 43 --  H 46          +18.9% ( 41.7%)    95.8%
 T-DIPOLE    0.5864        C 43 --  H 44          +18.1% ( 40.9%)    95.5%
 TRAVEL      0.1451        C 43 --  H 45          +16.7% ( 39.3%)    95.1%
 RED. MASS   0.1572        C 39 --  H 41          +14.6% ( 36.7%)    95.3%
 EFF. MASS   1.1478        C 39 --  H 40          +14.4% ( 36.5%)    95.3%
                           C 39 --  H 42          +14.3% ( 36.4%)    95.5%

 VIBRATION  156  156A       ATOM PAIR        ENERGY CONTRIBUTION    RADIAL
 FREQ.      2793.21        C 51 --  H 52          +24.8% ( 47.8%)    95.9%
 T-DIPOLE    0.7143        C 51 --  H 54          +22.0% ( 45.1%)    95.1%
 TRAVEL      0.1447        C 51 --  H 53          +21.6% ( 44.7%)    94.9%
 RED. MASS   0.1800        C 47 --  H 48           +9.4% ( 29.4%)    95.2%
 EFF. MASS   1.1536

 SYMMETRY NUMBER FOR POINT-GROUP C1  =  1


          SYSTEM IS A GROUND STATE


                                                                                                                                                                                                                                                 
 SJ000002349-1_T001S001I001C06: Free energy calculation                                                                                                                                                                                          


          MOLECULE IS NOT LINEAR

          THERE ARE  156 GENUINE VIBRATIONS IN THIS SYSTEM
          THIS THERMODYNAMICS CALCULATION IS LIMITED TO
          MOLECULES WHICH HAVE NO INTERNAL ROTATIONS




                    CALCULATED THERMODYNAMIC PROPERTIES
                                          *
   TEMP. (K)   PARTITION FUNCTION   H.O.F.    ENTHALPY  HEAT CAPACITY ENTROPY
                                   KCAL/MOL   CAL/MOLE    CAL/K/MOL  CAL/K/MOL


 298.00  VIB.     0.8321D+10                 14951.2982   100.0998    95.5639
         ROT.     0.1455D+08                   888.2813     2.9808    35.7558
         INT.     0.1211D+18                 15839.5795   103.0806   131.3197
         TRA.     0.7231D+28                  1480.4688     4.9680    43.7144
         TOT.                     -231.618   17320.0484   108.0486   175.0341

 200.00  VIB.     0.2049D+07                  6740.9761    67.6087    62.5848
         ROT.     0.7999D+07                   596.1620     2.9808    34.5671
         INT.     0.1639D+14                  7337.1381    70.5895    97.1519
         TRA.     0.3976D+28                   993.6033     4.9680    41.7332
         TOT.                     -240.607    8330.7413    75.5575   138.8852

 210.00  VIB.     0.4785D+07                  7433.3645    70.8710    65.9623
         ROT.     0.8607D+07                   625.9700     2.9808    34.7126
         INT.     0.4118D+14                  8059.3346    73.8518   100.6749
         TRA.     0.4278D+28                  1043.2834     4.9680    41.9756
         TOT.                     -239.835    9102.6180    78.8198   142.6505

 220.00  VIB.     0.1118D+08                  8158.4429    74.1472    69.3348
         ROT.     0.9229D+07                   655.7781     2.9808    34.8512
         INT.     0.1031D+15                  8814.2210    77.1280   104.1860
         TRA.     0.4587D+28                  1092.9636     4.9680    42.2067
         TOT.                     -239.030    9907.1846    82.0960   146.3928

 230.00  VIB.     0.2610D+08                  8916.3608    77.4391    72.7033
         ROT.     0.9865D+07                   685.5862     2.9808    34.9838
         INT.     0.2575D+15                  9601.9471    80.4199   107.6871
         TRA.     0.4903D+28                  1142.6437     4.9680    42.4276
         TOT.                     -238.193   10744.5908    85.3879   150.1146

 240.00  VIB.     0.6095D+08                  9707.2776    80.7468    76.0689
         ROT.     0.1052D+08                   715.3943     2.9808    35.1106
         INT.     0.6409D+15                 10422.6719    83.7276   111.1795
         TRA.     0.5226D+28                  1192.3239     4.9680    42.6390
         TOT.                     -237.323   11614.9958    88.6956   153.8186

 250.00  VIB.     0.1423D+09                 10531.3450    84.0689    79.4325
         ROT.     0.1118D+08                   745.2024     2.9808    35.2323
         INT.     0.1591D+16                 11276.5475    87.0497   114.6648
         TRA.     0.5556D+28                  1242.0041     4.9680    42.8418
         TOT.                     -236.419   12518.5515    92.0177   157.5066

 260.00  VIB.     0.3323D+09                 11388.6932    87.4024    82.7946
         ROT.     0.1186D+08                   775.0105     2.9808    35.3492
         INT.     0.3940D+16                 12163.7038    90.3832   118.1438
         TRA.     0.5893D+28                  1291.6842     4.9680    43.0367
         TOT.                     -235.482   13455.3880    95.3512   161.1805

 270.00  VIB.     0.7756D+09                 12279.4188    90.7436    86.1559
         ROT.     0.1255D+08                   804.8186     2.9808    35.4617
         INT.     0.9732D+16                 13084.2374    93.7244   121.6176
         TRA.     0.6236D+28                  1341.3644     4.9680    43.2242
         TOT.                     -234.512   14425.6018    98.6925   164.8417

 280.00  VIB.     0.1810D+10                 13203.5764    94.0880    89.5164
         ROT.     0.1325D+08                   834.6267     2.9808    35.5701
         INT.     0.2399D+17                 14038.2031    97.0688   125.0865
         TRA.     0.6586D+28                  1391.0445     4.9680    43.4048
         TOT.                     -233.508   15429.2477   102.0368   168.4914

 290.00  VIB.     0.4225D+10                 14161.1729    97.4306    92.8764
         ROT.     0.1397D+08                   864.4348     2.9808    35.6747
         INT.     0.5900D+17                 15025.6077   100.4114   128.5511
         TRA.     0.6942D+28                  1440.7247     4.9680    43.5792
         TOT.                     -232.471   16466.3325   105.3794   172.1303

 300.00  VIB.     0.9857D+10                 15152.1641   100.7661    96.2357
         ROT.     0.1470D+08                   894.2429     2.9808    35.7758
         INT.     0.1449D+18                 16046.4071   103.7469   132.0115
         TRA.     0.7304D+28                  1490.4049     4.9680    43.7476
         TOT.                     -231.401   17536.8119   108.7149   175.7591

 310.00  VIB.     0.2300D+11                 16176.4534   104.0893    99.5940
         ROT.     0.1544D+08                   924.0510     2.9808    35.8735
         INT.     0.3550D+18                 17100.5044   107.0701   135.4675
         TRA.     0.7672D+28                  1540.0850     4.9680    43.9105
         TOT.                     -230.297   18640.5895   112.0381   179.3781

 320.00  VIB.     0.5364D+11                 17233.8921   107.3951   102.9510
         ROT.     0.1619D+08                   953.8591     2.9808    35.9681
         INT.     0.8684D+18                 18187.7512   110.3759   138.9191
         TRA.     0.8046D+28                  1589.7652     4.9680    44.0682
         TOT.                     -229.160   19777.5164   115.3439   182.9874

 330.00  VIB.     0.1251D+12                 18324.2814   110.6786   106.3060
         ROT.     0.1695D+08                   983.6672     2.9808    36.0599
         INT.     0.2121D+19                 19307.9486   113.6594   142.3659
         TRA.     0.8426D+28                  1639.4454     4.9680    44.2211
         TOT.                     -227.990   20947.3939   118.6275   186.5870

 340.00  VIB.     0.2917D+12                 19447.3751   113.9353   109.6586
         ROT.     0.1773D+08                  1013.4753     2.9808    36.1488
         INT.     0.5172D+19                 20460.8504   116.9161   145.8074
         TRA.     0.8812D+28                  1689.1255     4.9680    44.3694
         TOT.                     -226.788   22149.9759   121.8841   190.1768

 350.00  VIB.     0.6801D+12                 20602.8833   117.1609   113.0079
         ROT.     0.1852D+08                  1043.2834     2.9808    36.2353
         INT.     0.1259D+20                 21646.1667   120.1417   149.2431
         TRA.     0.9204D+28                  1738.8057     4.9680    44.5134
         TOT.                     -225.553   23384.9724   125.1097   193.7566

 360.00  VIB.     0.1585D+13                 21790.4763   120.3516   116.3532
         ROT.     0.1932D+08                  1073.0915     2.9808    36.3192
         INT.     0.3062D+20                 22863.5678   123.3324   152.6725
         TRA.     0.9601D+28                  1788.4859     4.9680    44.6534
         TOT.                     -224.286   24652.0537   128.3005   197.3258

 370.00  VIB.     0.3694D+13                 23009.7887   123.5042   119.6938
         ROT.     0.2013D+08                  1102.8996     2.9808    36.4009
         INT.     0.7435D+20                 24112.6883   126.4850   156.0947
         TRA.     0.1000D+29                  1838.1660     4.9680    44.7895
         TOT.                     -222.987   25950.8543   131.4531   200.8842

 380.00  VIB.     0.8605D+13                 24260.4241   126.6158   123.0289
         ROT.     0.2095D+08                  1132.7077     2.9808    36.4804
         INT.     0.1803D+21                 25393.1318   129.5966   159.5093
         TRA.     0.1041D+29                  1887.8462     4.9680    44.9220
         TOT.                     -221.657   27280.9780   134.5646   204.4312

 390.00  VIB.     0.2004D+14                 25541.9592   129.6838   126.3575
         ROT.     0.2178D+08                  1162.5158     2.9808    36.5578
         INT.     0.4364D+21                 26704.4750   132.6646   162.9154
         TRA.     0.1083D+29                  1937.5263     4.9680    45.0510
         TOT.                     -220.296   28642.0014   137.6326   207.9664

 400.00  VIB.     0.4664D+14                 26853.9480   132.7062   129.6790
         ROT.     0.2262D+08                  1192.3239     2.9808    36.6333
         INT.     0.1055D+22                 28046.2719   135.6870   166.3123
         TRA.     0.1125D+29                  1987.2065     4.9680    45.1768
         TOT.                     -218.904   30033.4784   140.6550   211.4892

   *: NOTE: HEATS OF FORMATION ARE RELATIVE TO THE
             ELEMENTS IN THEIR STANDARD STATE AT 298K
              (=  Standard Enthalpy of Formation).
            Heat of Formation at T is calculated as [Escf + (HT - H298.15)-.

            Hvib:  Zero-point energy is not included.
                   Wi < 100 cm-1 are not included.
            Hrot = (3/2)RT
            Htra = (3/2)RT + pV = (5/2)RT

            Heat capacity is Cp, not Cv

                 See Section 8.20 in Manual for further information.   (by TH).

           FORCE CONSTANT IN CARTESIAN COORDINATES (Millidynes/A)

    ATOM   CHEMICAL       X               Y               Z
   NUMBER   SYMBOL  FORCE CONSTANT  FORCE CONSTANT  FORCE CONSTANT

      1       C        7.300792        7.839655        7.745117
      2       C        6.883510        7.555317        6.091126
      3       C        8.050443       12.404010        3.550008
      4       C        8.822699       11.878405        3.769449
      5       C        7.527714        7.979854        6.781344
      6       C        9.643654       11.411202        3.141598
      7       C        9.611742       10.745658        3.605554
      8       C        7.592666        6.674474        6.135179
      9       C        7.783775        7.286469        7.780986
     10       C        7.362954        6.978260        6.073754
     11       C        8.792356       11.279183        4.745266
     12       O        2.680020        8.365237        2.325316
     13       O        6.281117        5.642174        1.450062
     14       C        8.428602       11.576690        4.824918
     15       O        3.719188        7.935564        2.073004
     16       C        6.663528        7.341230        6.293596
     17       H        1.125686        1.636461        2.554820
     18       H        1.098108        1.497354        2.647571
     19       H        0.844410        1.568759        3.126033
     20       H        0.764354        0.560303        3.925764
     21       H        1.068438        3.594852        0.682771
     22       H        0.726181        0.943274        3.693126
     23       H        1.793496        2.206083        1.362956
     24       H        0.563855        1.265459        3.488033
     25       H        4.031315        0.733101        0.563104
     26       C        4.107371        9.785590        9.301192
     27       C        4.415218       10.016555        8.972899
     28       C        3.893315        9.206005        9.208143
     29       C        4.011836       10.579512        9.164589
     30       H        0.531875        4.029883        0.744015
     31       C        3.929573        9.470119        8.558462
     32       C        4.037390        9.029201        9.354389
     33       H        0.642452        1.477018        3.203391
     34       H        0.597774        3.917424        0.871463
     35       O        2.510523        3.681109        4.986214
     36       H        1.345192        0.924353        1.570232
     37       O        1.797118        4.933541        4.315742
     38       H        0.382281        3.258673        0.675298
     39       C        6.381228        6.884556        6.389629
     40       H        0.881156        2.320738        2.095856
     41       H        4.099442        0.696344        0.516474
     42       H        0.887527        1.019966        3.414719
     43       C        6.396708        6.455791        6.811977
     44       H        0.894229        1.919868        2.515198
     45       H        0.854353        3.549287        0.948316
     46       H        4.112390        0.517670        0.691519
     47       C        6.833571        6.344860        6.499998
     48       H        1.341288        3.427885        0.573168
     49       H        2.096743        2.003955        1.221277
     50       H        0.696738        0.702103        3.927045
     51       C        6.384970        6.304815        6.889160
     52       H        3.333913        0.512425        1.504308
     53       H        1.709159        2.039513        1.578032
     54       H        1.125877        3.443108        0.780235



 TOTAL CPU TIME:            74.13 SECONDS

 == MOPAC DONE ==
