 *******************************************************************************
 ** Site#:  958            For non-commercial use only         Version 9.015L **
 *******************************************************************************
 ** Cite this work as: MOPAC2009, James J. P. Stewart, Stewart Computational  **
 ** Chemistry, Version 9.015L web: HTTP://OpenMOPAC.net                       **
 *******************************************************************************
 **                                                                           **
 **                                MOPAC2009                                  **
 **                                                                           **
 *******************************************************************************

                            PM6 CALCULATION RESULTS


 *******************************************************************************
 *  CALCULATION DONE:                                Thu Sep  8 04:23:27 2011  *
 *  PM6      - The PM6 Hamiltonian to be used
 *  PDBOUT   - PRINT GEOMETY IN PDB FORMAT
 *  MOZYME   - USE LOCALIZED M.O.s IN SOLVING THE SCF EQUATIONS
 *
 *
 *
 *                 CHARGE ON SYSTEM =     0
 *
 *
 *
 *  EPS= 78.400
 *  RSOLV=  1.300
 *  LET      - OVERRIDE SOME SAFETY CHECKS
 *  XYZ      - CARTESIAN COORDINATE SYSTEM TO BE USED
 *  LBFGS    - USE THE LBFGS GEOMETRY OPTIMIZER
 *  1SCF     - DO 1 SCF AND THEN STOP 
 *  T=       - A TIME OF  0.3E+08 SECONDS REQUESTED
 *  DUMP=N   - RESTART FILE WRITTEN EVERY  4320.000 SECONDS
 *  DDMIN=   - MINIMUM TRUST RADIUS  0.000 ANG/RAD
 *  GNORM=   - EXIT WHEN GRADIENT NORM DROPS BELOW .150    
 *  RELSCF   - DEFAULT SCF CRITERION MULTIPLIED BY   0.100    
 *             (DEFAULT SCFCRT= 0.00010)
 *  MULLIK   - THE MULLIKEN ANALYSIS TO BE PERFORMED
 *******************************************************************************
 PM6 T=31406245 DUMP=4320 XYZ EPS=78.40 RSOLV=1.30 MULLIK LBFGS MOZYME PDBOUT +
 CHARGE=0 RELSCF=0.1 LET DDMIN=0.0 GNORM=0.15 1SCF
 SJ000002349-1_T001S001I001C05_003: Geometry optimization step

   ATOM   CHEMICAL          X               Y              Z
  NUMBER   SYMBOL      (ANGSTROMS)     (ANGSTROMS)    (ANGSTROMS)
 
     1       C         -8.7760000  *  -26.730000  *    8.310000  *
     2       C         -9.1770000  *  -25.293000  *    8.645000  *
     3       C         -8.1400000  *  -24.663000  *    9.544000  *
     4       C         -7.4570000  *  -25.423000  *   10.420000  *
     5       C         -6.4170000  *  -24.793000  *   11.313000  *
     6       C         -5.9820000  *  -23.458000  *   10.763000  *
     7       C         -6.7540000  *  -22.817000  *    9.864000  *
     8       C         -6.3160000  *  -21.484000  *    9.305000  *
     9       C         -4.7900000  *  -21.423000  *    9.235000  *
    10       C         -4.2820000  *  -21.580000  *   10.670000  *
    11       C         -4.7670000  *  -22.900000  *   11.203000  *
    12       O         -4.1000000  *  -23.494000  *   12.025000  *
    13       O         -7.9200000  *  -23.342000  *    9.454000  *
    14       C         -7.6940000  *  -26.806000  *   10.519000  *
    15       O         -7.0710000  *  -27.464000  *   11.328000  *
    16       C         -8.7080000  *  -27.485000  *    9.639000  *
    17       H         -9.2550000  *  -24.716000  *    7.724000  *
    18       H        -10.1420000  *  -25.297000  *    9.152000  *
    19       H         -6.8360000  *  -24.652000  *   12.309000  *
    20       H         -6.7290000  *  -21.359000  *    8.304000  *
    21       H         -6.6820000  *  -20.685000  *    9.949000  *
    22       H         -3.1920000  *  -21.558000  *   10.679000  *
    23       H         -4.6710000  *  -20.769000  *   11.288000  *
    24       H         -9.6840000  *  -27.467000  *   10.122000  *
    25       H         -8.4070000  *  -28.517000  *    9.459000  *
    26       C         -5.2210000  *  -25.706000  *   11.403000  *
    27       C         -4.7690000  *  -26.137000  *   12.643000  *
    28       C         -3.6700000  *  -26.977000  *   12.724000  *
    29       C         -3.0240000  *  -27.384000  *   11.569000  *
    30       H         -3.3160000  *  -27.313000  *   13.689000  *
    31       C         -3.4780000  *  -26.950000  *   10.331000  *
    32       C         -4.5770000  *  -26.118000  *   10.251000  *
    33       H         -2.9750000  *  -27.267000  *    9.430000  *
    34       H         -4.9310000  *  -25.782000  *    9.288000  *
    35       O         -5.4060000  *  -25.737000  *   13.775000  *
    36       H         -5.5320000  *  -24.780000  *   13.840000  *
    37       O         -1.9450000  *  -28.207000  *   11.646000  *
    38       H         -2.0950000  *  -29.088000  *   11.276000  *
    39       C         -9.8250000  *  -27.369000  *    7.397000  *
    40       H        -10.1400000  *  -26.645000  *    6.645000  *
    41       H         -9.3960000  *  -28.242000  *    6.905000  *
    42       H        -10.6860000  *  -27.673000  *    7.991000  *
    43       C         -7.4070000  *  -26.746000  *    7.626000  *
    44       H         -6.7040000  *  -27.315000  *    8.235000  *
    45       H         -7.4960000  *  -27.209000  *    6.645000  *
    46       H         -7.0440000  *  -25.724000  *    7.514000  *
    47       C         -4.2580000  *  -22.562000  *    8.364000  *
    48       H         -3.5960000  *  -23.193000  *    8.956000  *
    49       H         -5.0920000  *  -23.156000  *    7.993000  *
    50       H         -3.7040000  *  -22.146000  *    7.522000  *
    51       C         -4.3460000  *  -20.074000  *    8.664000  *
    52       H         -3.6830000  *  -20.241000  *    7.815000  *
    53       H         -5.2210000  *  -19.513000  *    8.338000  *
    54       H         -3.8180000  *  -19.510000  *    9.432000  *
 


          CARTESIAN COORDINATES 

    NO.       ATOM         X         Y         Z

     1         C       -8.7760  -26.7300    8.3100
     2         C       -9.1770  -25.2930    8.6450
     3         C       -8.1400  -24.6630    9.5440
     4         C       -7.4570  -25.4230   10.4200
     5         C       -6.4170  -24.7930   11.3130
     6         C       -5.9820  -23.4580   10.7630
     7         C       -6.7540  -22.8170    9.8640
     8         C       -6.3160  -21.4840    9.3050
     9         C       -4.7900  -21.4230    9.2350
    10         C       -4.2820  -21.5800   10.6700
    11         C       -4.7670  -22.9000   11.2030
    12         O       -4.1000  -23.4940   12.0250
    13         O       -7.9200  -23.3420    9.4540
    14         C       -7.6940  -26.8060   10.5190
    15         O       -7.0710  -27.4640   11.3280
    16         C       -8.7080  -27.4850    9.6390
    17         H       -9.2550  -24.7160    7.7240
    18         H      -10.1420  -25.2970    9.1520
    19         H       -6.8360  -24.6520   12.3090
    20         H       -6.7290  -21.3590    8.3040
    21         H       -6.6820  -20.6850    9.9490
    22         H       -3.1920  -21.5580   10.6790
    23         H       -4.6710  -20.7690   11.2880
    24         H       -9.6840  -27.4670   10.1220
    25         H       -8.4070  -28.5170    9.4590
    26         C       -5.2210  -25.7060   11.4030
    27         C       -4.7690  -26.1370   12.6430
    28         C       -3.6700  -26.9770   12.7240
    29         C       -3.0240  -27.3840   11.5690
    30         H       -3.3160  -27.3130   13.6890
    31         C       -3.4780  -26.9500   10.3310
    32         C       -4.5770  -26.1180   10.2510
    33         H       -2.9750  -27.2670    9.4300
    34         H       -4.9310  -25.7820    9.2880
    35         O       -5.4060  -25.7370   13.7750
    36         H       -5.5320  -24.7800   13.8400
    37         O       -1.9450  -28.2070   11.6460
    38         H       -2.0950  -29.0880   11.2760
    39         C       -9.8250  -27.3690    7.3970
    40         H      -10.1400  -26.6450    6.6450
    41         H       -9.3960  -28.2420    6.9050
    42         H      -10.6860  -27.6730    7.9910
    43         C       -7.4070  -26.7460    7.6260
    44         H       -6.7040  -27.3150    8.2350
    45         H       -7.4960  -27.2090    6.6450
    46         H       -7.0440  -25.7240    7.5140
    47         C       -4.2580  -22.5620    8.3640
    48         H       -3.5960  -23.1930    8.9560
    49         H       -5.0920  -23.1560    7.9930
    50         H       -3.7040  -22.1460    7.5220
    51         C       -4.3460  -20.0740    8.6640
    52         H       -3.6830  -20.2410    7.8150
    53         H       -5.2210  -19.5130    8.3380
    54         H       -3.8180  -19.5100    9.4320

 General Reference for PM6:
 "Optimization of Parameters for Semiempirical Methods V: Modification of NDDO Approximations
 and Application to 70 Elements", J. J. P. Stewart, J. Mol. Mod., 13, 1173-1213 (2007)
 URL: http://www.springerlink.com/content/ar33482301010477/fulltext.pdf

           Empirical Formula: C23 H26 O5  =    54 atoms



      MOLECULAR POINT GROUP   :   C1  
 
   NUMBER AND TYPES OF BONDS IDENTIFIED
 
         SIGMA BONDS               57
         LONE PAIRS                10
         NORMAL PI BONDS            6
         AROMATIC RING PI BONDS     1
 

                  Ramachandran Angles
              Residue    phi    psi  omega

  
  SCF CRITERION =    0.1000E-02

 -------------------------------------------------------------------------------
 PM6 T=31406245 DUMP=4320 XYZ EPS=78.40 RSOLV=1.30 MULLIK LBFGS MOZYME PDBOUT +
 CHARGE=0 RELSCF=0.1 LET DDMIN=0.0 GNORM=0.15 1SCF
 SJ000002349-1_T001S001I001C05_003: Geometry optimization step



     1SCF WAS SPECIFIED, SO BFGS WAS NOT USED                 
     SCF FIELD WAS ACHIEVED                                   


                               PM6     CALCULATION
                                                       MOPAC2009 (Version: 9.015L)
                                                       Thu Sep  8 04:23:28 2011




          FINAL HEAT OF FORMATION =       -181.26101 KCAL =    -758.39605 KJ
          VAN DER WAALS AREA      =        351.42 SQUARE ANGSTROMS


          TOTAL ENERGY            =      -4642.15629 EV
          ELECTRONIC ENERGY       =     -42323.84535 EV
          CORE-CORE REPULSION     =      37681.68906 EV
          DIELECTRIC ENERGY       =         -1.41887 EV
          COSMO AREA              =        351.42 SQUARE ANGSTROMS
          COSMO VOLUME            =        450.69 CUBIC ANGSTROMS

          NO. OF FILLED LEVELS    =         74
          MOLECULAR WEIGHT        =        382.455

          MOLECULAR DIMENSIONS (Angstroms)

            Atom       Atom       Distance
            H    53    H    38    10.49211
            H    42    H    22     9.69765
            H    50    H    36     6.07525


          SCF CALCULATIONS        =          2
          COMPUTATION TIME        =          0.571 SECONDS




   ATOM           CHEMICAL             X               Y              Z
  NUMBER           SYMBOL         (ANGSTROMS)     (ANGSTROMS)    (ANGSTROMS)
 
     1       C(     1  C     )   -8.7760000  *  -26.730000  *    8.310000  *
     2       C(     2  C     )   -9.1770000  *  -25.293000  *    8.645000  *
     3       C(     3  C     )   -8.1400000  *  -24.663000  *    9.544000  *
     4       C(     4  C     )   -7.4570000  *  -25.423000  *   10.420000  *
     5       C(     5  C     )   -6.4170000  *  -24.793000  *   11.313000  *
     6       C(     6  C     )   -5.9820000  *  -23.458000  *   10.763000  *
     7       C(     7  C     )   -6.7540000  *  -22.817000  *    9.864000  *
     8       C(     8  C     )   -6.3160000  *  -21.484000  *    9.305000  *
     9       C(     9  C     )   -4.7900000  *  -21.423000  *    9.235000  *
    10       C(    10  C     )   -4.2820000  *  -21.580000  *   10.670000  *
    11       C(    11  C     )   -4.7670000  *  -22.900000  *   11.203000  *
    12       O(    12  O     )   -4.1000000  *  -23.494000  *   12.025000  *
    13       O(    13  O     )   -7.9200000  *  -23.342000  *    9.454000  *
    14       C(    14  C     )   -7.6940000  *  -26.806000  *   10.519000  *
    15       O(    15  O     )   -7.0710000  *  -27.464000  *   11.328000  *
    16       C(    16  C     )   -8.7080000  *  -27.485000  *    9.639000  *
    17       H(    17  C     )   -9.2550000  *  -24.716000  *    7.724000  *
    18       H(    18  C     )  -10.1420000  *  -25.297000  *    9.152000  *
    19       H(    19  C     )   -6.8360000  *  -24.652000  *   12.309000  *
    20       H(    20  C     )   -6.7290000  *  -21.359000  *    8.304000  *
    21       H(    21  C     )   -6.6820000  *  -20.685000  *    9.949000  *
    22       H(    22  C     )   -3.1920000  *  -21.558000  *   10.679000  *
    23       H(    23  C     )   -4.6710000  *  -20.769000  *   11.288000  *
    24       H(    24  C     )   -9.6840000  *  -27.467000  *   10.122000  *
    25       H(    25  C     )   -8.4070000  *  -28.517000  *    9.459000  *
    26       C(    26  C     )   -5.2210000  *  -25.706000  *   11.403000  *
    27       C(    27  C     )   -4.7690000  *  -26.137000  *   12.643000  *
    28       C(    28  C     )   -3.6700000  *  -26.977000  *   12.724000  *
    29       C(    29  C     )   -3.0240000  *  -27.384000  *   11.569000  *
    30       H(    30  C     )   -3.3160000  *  -27.313000  *   13.689000  *
    31       C(    31  C     )   -3.4780000  *  -26.950000  *   10.331000  *
    32       C(    32  C     )   -4.5770000  *  -26.118000  *   10.251000  *
    33       H(    33  C     )   -2.9750000  *  -27.267000  *    9.430000  *
    34       H(    34  C     )   -4.9310000  *  -25.782000  *    9.288000  *
    35       O(    35  O     )   -5.4060000  *  -25.737000  *   13.775000  *
    36       H(    36  O     )   -5.5320000  *  -24.780000  *   13.840000  *
    37       O(    37  O     )   -1.9450000  *  -28.207000  *   11.646000  *
    38       H(    38  O     )   -2.0950000  *  -29.088000  *   11.276000  *
    39       C(    39  C     )   -9.8250000  *  -27.369000  *    7.397000  *
    40       H(    40  C     )  -10.1400000  *  -26.645000  *    6.645000  *
    41       H(    41  C     )   -9.3960000  *  -28.242000  *    6.905000  *
    42       H(    42  C     )  -10.6860000  *  -27.673000  *    7.991000  *
    43       C(    43  C     )   -7.4070000  *  -26.746000  *    7.626000  *
    44       H(    44  C     )   -6.7040000  *  -27.315000  *    8.235000  *
    45       H(    45  C     )   -7.4960000  *  -27.209000  *    6.645000  *
    46       H(    46  C     )   -7.0440000  *  -25.724000  *    7.514000  *
    47       C(    47  C     )   -4.2580000  *  -22.562000  *    8.364000  *
    48       H(    48  C     )   -3.5960000  *  -23.193000  *    8.956000  *
    49       H(    49  C     )   -5.0920000  *  -23.156000  *    7.993000  *
    50       H(    50  C     )   -3.7040000  *  -22.146000  *    7.522000  *
    51       C(    51  C     )   -4.3460000  *  -20.074000  *    8.664000  *
    52       H(    52  C     )   -3.6830000  *  -20.241000  *    7.815000  *
    53       H(    53  C     )   -5.2210000  *  -19.513000  *    8.338000  *
    54       H(    54  C     )   -3.8180000  *  -19.510000  *    9.432000  *

           Empirical Formula: C23 H26 O5  =    54 atoms



              NET ATOMIC CHARGES AND DIPOLE CONTRIBUTIONS

  ATOM NO.   TYPE          CHARGE      No. of ELECS.   s-Pop       p-Pop       
    1          C           0.287739        3.7123     1.06317     2.64909
    2          C          -0.422260        4.4223     1.10698     3.31528
    3          C           0.436920        3.5631     1.10005     2.46303
    4          C          -0.485718        4.4857     1.11015     3.37557
    5          C           0.121419        3.8786     1.05088     2.82770
    6          C          -0.492513        4.4925     1.11095     3.38157
    7          C           0.440541        3.5595     1.10082     2.45864
    8          C          -0.423278        4.4233     1.10810     3.31518
    9          C           0.287882        3.7121     1.06305     2.64907
   10          C          -0.532373        4.5324     1.11906     3.41331
   11          C           0.665539        3.3345     1.07353     2.26093
   12          O          -0.623168        6.6232     1.84457     4.77860
   13          O          -0.345977        6.3460     1.78198     4.56399
   14          C           0.665011        3.3350     1.07341     2.26158
   15          O          -0.619460        6.6195     1.84539     4.77407
   16          C          -0.533502        4.5335     1.11823     3.41527
   17          H           0.198363        0.8016     0.80164
   18          H           0.206511        0.7935     0.79349
   19          H           0.140011        0.8600     0.85999
   20          H           0.199848        0.8002     0.80015
   21          H           0.207349        0.7927     0.79265
   22          H           0.201628        0.7984     0.79837
   23          H           0.208038        0.7920     0.79196
   24          H           0.206518        0.7935     0.79348
   25          H           0.202059        0.7979     0.79794
   26          C          -0.156979        4.1570     1.09551     3.06147
   27          C           0.394720        3.6053     1.05821     2.54707
   28          C          -0.437117        4.4371     1.10437     3.33275
   29          C           0.375808        3.6242     1.05569     2.56850
   30          H           0.199443        0.8006     0.80056
   31          C          -0.374448        4.3744     1.10659     3.26786
   32          C          -0.009801        4.0098     1.09455     2.91525
   33          H           0.184427        0.8156     0.81557
   34          H           0.152351        0.8476     0.84765
   35          O          -0.554899        6.5549     1.77555     4.77935
   36          H           0.369581        0.6304     0.63042
   37          O          -0.569695        6.5697     1.77340     4.79630
   38          H           0.374507        0.6255     0.62549
   39          C          -0.544969        4.5450     1.09534     3.44962
   40          H           0.171844        0.8282     0.82816
   41          H           0.174391        0.8256     0.82561
   42          H           0.170266        0.8297     0.82973
   43          C          -0.556887        4.5569     1.09708     3.45981
   44          H           0.169591        0.8304     0.83041
   45          H           0.177115        0.8229     0.82289
   46          H           0.166451        0.8335     0.83355
   47          C          -0.557781        4.5578     1.09804     3.45974
   48          H           0.170250        0.8298     0.82975
   49          H           0.167175        0.8328     0.83282
   50          H           0.176873        0.8231     0.82313
   51          C          -0.550000        4.5500     1.09669     3.45331
   52          H           0.174928        0.8251     0.82507
   53          H           0.172696        0.8273     0.82730
   54          H           0.173028        0.8270     0.82697


          CARTESIAN COORDINATES 

    NO.       ATOM               X         Y         Z

     1         C                 -8.7760  -26.7300    8.3100
     2         C                 -9.1770  -25.2930    8.6450
     3         C                 -8.1400  -24.6630    9.5440
     4         C                 -7.4570  -25.4230   10.4200
     5         C                 -6.4170  -24.7930   11.3130
     6         C                 -5.9820  -23.4580   10.7630
     7         C                 -6.7540  -22.8170    9.8640
     8         C                 -6.3160  -21.4840    9.3050
     9         C                 -4.7900  -21.4230    9.2350
    10         C                 -4.2820  -21.5800   10.6700
    11         C                 -4.7670  -22.9000   11.2030
    12         O                 -4.1000  -23.4940   12.0250
    13         O                 -7.9200  -23.3420    9.4540
    14         C                 -7.6940  -26.8060   10.5190
    15         O                 -7.0710  -27.4640   11.3280
    16         C                 -8.7080  -27.4850    9.6390
    17         H                 -9.2550  -24.7160    7.7240
    18         H                -10.1420  -25.2970    9.1520
    19         H                 -6.8360  -24.6520   12.3090
    20         H                 -6.7290  -21.3590    8.3040
    21         H                 -6.6820  -20.6850    9.9490
    22         H                 -3.1920  -21.5580   10.6790
    23         H                 -4.6710  -20.7690   11.2880
    24         H                 -9.6840  -27.4670   10.1220
    25         H                 -8.4070  -28.5170    9.4590
    26         C                 -5.2210  -25.7060   11.4030
    27         C                 -4.7690  -26.1370   12.6430
    28         C                 -3.6700  -26.9770   12.7240
    29         C                 -3.0240  -27.3840   11.5690
    30         H                 -3.3160  -27.3130   13.6890
    31         C                 -3.4780  -26.9500   10.3310
    32         C                 -4.5770  -26.1180   10.2510
    33         H                 -2.9750  -27.2670    9.4300
    34         H                 -4.9310  -25.7820    9.2880
    35         O                 -5.4060  -25.7370   13.7750
    36         H                 -5.5320  -24.7800   13.8400
    37         O                 -1.9450  -28.2070   11.6460
    38         H                 -2.0950  -29.0880   11.2760
    39         C                 -9.8250  -27.3690    7.3970
    40         H                -10.1400  -26.6450    6.6450
    41         H                 -9.3960  -28.2420    6.9050
    42         H                -10.6860  -27.6730    7.9910
    43         C                 -7.4070  -26.7460    7.6260
    44         H                 -6.7040  -27.3150    8.2350
    45         H                 -7.4960  -27.2090    6.6450
    46         H                 -7.0440  -25.7240    7.5140
    47         C                 -4.2580  -22.5620    8.3640
    48         H                 -3.5960  -23.1930    8.9560
    49         H                 -5.0920  -23.1560    7.9930
    50         H                 -3.7040  -22.1460    7.5220
    51         C                 -4.3460  -20.0740    8.6640
    52         H                 -3.6830  -20.2410    7.8150
    53         H                 -5.2210  -19.5130    8.3380
    54         H                 -3.8180  -19.5100    9.4320


          ATOMIC ORBITAL ELECTRON POPULATIONS

   1.06317   0.91156   0.85336   0.88417   1.10698   1.09596   1.08873   1.13059
   1.10005   0.86568   0.73827   0.85908   1.11015   1.15396   1.07105   1.15055
   1.05088   0.92288   0.88214   1.02269   1.11095   1.11379   1.10177   1.16600
   1.10082   0.74923   0.88207   0.82735   1.10810   1.09852   1.03207   1.18459
   1.06305   0.85194   0.91781   0.87932   1.11906   1.19047   1.11443   1.10842
   1.07353   0.77695   0.79158   0.69240   1.84457   1.65221   1.67831   1.44808
   1.78198   1.45157   1.35162   1.76081   1.07341   0.71422   0.83292   0.71444
   1.84539   1.55999   1.73228   1.48180   1.11823   1.15671   1.16403   1.09454
   0.80164   0.79349   0.85999   0.80015   0.79265   0.79837   0.79196   0.79348
   0.79794   1.09551   1.02322   1.04838   0.98986   1.05821   0.85615   0.88941
   0.80151   1.10437   1.06004   1.16594   1.10676   1.05569   0.79211   0.85245
   0.92395   0.80056   1.10659   1.07890   1.11124   1.07772   1.09455   0.94238
   0.93378   1.03910   0.81557   0.84765   1.77555   1.80146   1.44363   1.53427
   0.63042   1.77340   1.50794   1.40671   1.88165   0.62549   1.09534   1.13244
   1.17094   1.14624   0.82816   0.82561   0.82973   1.09708   1.09285   1.19101
   1.17595   0.83041   0.82289   0.83355   1.09804   1.17780   1.12575   1.15619
   0.82975   0.83282   0.82313   1.09669   1.18404   1.09217   1.17711   0.82507
   0.82730   0.82697

           MULLIKEN POPULATION ANALYSIS



        MULLIKEN POPULATIONS AND CHARGES

      NO.  ATOM   POPULATION      CHARGE
        1    C     3.683263      0.316737
        2    C     4.541636     -0.541636
        3    C     3.539940      0.460060
        4    C     4.535470     -0.535470
        5    C     3.877554      0.122446
        6    C     4.542781     -0.542781
        7    C     3.535973      0.464027
        8    C     4.543282     -0.543282
        9    C     3.682906      0.317094
       10    C     4.663659     -0.663659
       11    C     3.281355      0.718645
       12    O     6.648277     -0.648277
       13    O     6.392925     -0.392925
       14    C     3.281818      0.718182
       15    O     6.644117     -0.644117
       16    C     4.665090     -0.665090
       17    H     0.744642      0.255358
       18    H     0.736242      0.263758
       19    H     0.814687      0.185313
       20    H     0.742835      0.257165
       21    H     0.735167      0.264833
       22    H     0.741194      0.258806
       23    H     0.735593      0.264407
       24    H     0.737177      0.262823
       25    H     0.740543      0.259457
       26    C     4.174246     -0.174246
       27    C     3.579965      0.420035
       28    C     4.509311     -0.509311
       29    C     3.600366      0.399634
       30    H     0.738258      0.261742
       31    C     4.444361     -0.444361
       32    C     4.041599     -0.041599
       33    H     0.757078      0.242922
       34    H     0.798434      0.201566
       35    O     6.606415     -0.606415
       36    H     0.595902      0.404098
       37    O     6.621272     -0.621272
       38    H     0.590689      0.409311
       39    C     4.692033     -0.692033
       40    H     0.779971      0.220029
       41    H     0.777030      0.222970
       42    H     0.781397      0.218603
       43    C     4.702637     -0.702637
       44    H     0.783230      0.216770
       45    H     0.773257      0.226743
       46    H     0.787072      0.212928
       47    C     4.703277     -0.703277
       48    H     0.782181      0.217819
       49    H     0.785961      0.214039
       50    H     0.774458      0.225542
       51    C     4.696744     -0.696744
       52    H     0.777022      0.222978
       53    H     0.779130      0.220870
       54    H     0.778574      0.221426



 TOTAL CPU TIME:             0.61 SECONDS

 == MOPAC DONE ==
 *******************************************************************************
 ** Site#:  958            For non-commercial use only         Version 9.015L **
 *******************************************************************************
 ** Cite this work as: MOPAC2009, James J. P. Stewart, Stewart Computational  **
 ** Chemistry, Version 9.015L web: HTTP://OpenMOPAC.net                       **
 *******************************************************************************
 **                                                                           **
 **                                MOPAC2009                                  **
 **                                                                           **
 *******************************************************************************

                            PM6 CALCULATION RESULTS


 *******************************************************************************
 *  CALCULATION DONE:                                Thu Sep  8 04:23:28 2011  *
 *  PM6      - The PM6 Hamiltonian to be used
 *  GEO-OK   - OVERRIDE INTERATOMIC DISTANCE CHECK
 *  MOZYME   - USE LOCALIZED M.O.s IN SOLVING THE SCF EQUATIONS
 *
 *
 *
 *                 CHARGE ON SYSTEM =     0
 *
 *
 *
 *  EPS= 78.400
 *  RSOLV=  1.300
 *  OLDGEO   - PREVIOUS GEOMETRY TO BE USED
 *  T=       - A TIME OF 172800.0 SECONDS REQUESTED
 *  DUMP=N   - RESTART FILE WRITTEN EVERY  4320.000 SECONDS
 *  RELSCF   - DEFAULT SCF CRITERION MULTIPLIED BY   0.100    
 *             (DEFAULT SCFCRT= 0.00010)
 *  THERMO   - THERMODYNAMIC QUANTITIES TO BE CALCULATED
 *******************************************************************************
 PM6 DUMP=4320 MOZYME RELSCF=0.1 THERMO EPS=78.40 RSOLV=1.30 +
 OLDGEO GEO-OK CHARGE=0
 SJ000002349-1_T001S001I001C05_003: Free energy calculation

   ATOM           CHEMICAL             X               Y              Z
  NUMBER           SYMBOL         (ANGSTROMS)     (ANGSTROMS)    (ANGSTROMS)
 
     1       C(     1  C     )   -8.7760000  *  -26.730000  *    8.310000  *
     2       C(     2  C     )   -9.1770000  *  -25.293000  *    8.645000  *
     3       C(     3  C     )   -8.1400000  *  -24.663000  *    9.544000  *
     4       C(     4  C     )   -7.4570000  *  -25.423000  *   10.420000  *
     5       C(     5  C     )   -6.4170000  *  -24.793000  *   11.313000  *
     6       C(     6  C     )   -5.9820000  *  -23.458000  *   10.763000  *
     7       C(     7  C     )   -6.7540000  *  -22.817000  *    9.864000  *
     8       C(     8  C     )   -6.3160000  *  -21.484000  *    9.305000  *
     9       C(     9  C     )   -4.7900000  *  -21.423000  *    9.235000  *
    10       C(    10  C     )   -4.2820000  *  -21.580000  *   10.670000  *
    11       C(    11  C     )   -4.7670000  *  -22.900000  *   11.203000  *
    12       O(    12  O     )   -4.1000000  *  -23.494000  *   12.025000  *
    13       O(    13  O     )   -7.9200000  *  -23.342000  *    9.454000  *
    14       C(    14  C     )   -7.6940000  *  -26.806000  *   10.519000  *
    15       O(    15  O     )   -7.0710000  *  -27.464000  *   11.328000  *
    16       C(    16  C     )   -8.7080000  *  -27.485000  *    9.639000  *
    17       H(    17  C     )   -9.2550000  *  -24.716000  *    7.724000  *
    18       H(    18  C     )  -10.1420000  *  -25.297000  *    9.152000  *
    19       H(    19  C     )   -6.8360000  *  -24.652000  *   12.309000  *
    20       H(    20  C     )   -6.7290000  *  -21.359000  *    8.304000  *
    21       H(    21  C     )   -6.6820000  *  -20.685000  *    9.949000  *
    22       H(    22  C     )   -3.1920000  *  -21.558000  *   10.679000  *
    23       H(    23  C     )   -4.6710000  *  -20.769000  *   11.288000  *
    24       H(    24  C     )   -9.6840000  *  -27.467000  *   10.122000  *
    25       H(    25  C     )   -8.4070000  *  -28.517000  *    9.459000  *
    26       C(    26  C     )   -5.2210000  *  -25.706000  *   11.403000  *
    27       C(    27  C     )   -4.7690000  *  -26.137000  *   12.643000  *
    28       C(    28  C     )   -3.6700000  *  -26.977000  *   12.724000  *
    29       C(    29  C     )   -3.0240000  *  -27.384000  *   11.569000  *
    30       H(    30  C     )   -3.3160000  *  -27.313000  *   13.689000  *
    31       C(    31  C     )   -3.4780000  *  -26.950000  *   10.331000  *
    32       C(    32  C     )   -4.5770000  *  -26.118000  *   10.251000  *
    33       H(    33  C     )   -2.9750000  *  -27.267000  *    9.430000  *
    34       H(    34  C     )   -4.9310000  *  -25.782000  *    9.288000  *
    35       O(    35  O     )   -5.4060000  *  -25.737000  *   13.775000  *
    36       H(    36  O     )   -5.5320000  *  -24.780000  *   13.840000  *
    37       O(    37  O     )   -1.9450000  *  -28.207000  *   11.646000  *
    38       H(    38  O     )   -2.0950000  *  -29.088000  *   11.276000  *
    39       C(    39  C     )   -9.8250000  *  -27.369000  *    7.397000  *
    40       H(    40  C     )  -10.1400000  *  -26.645000  *    6.645000  *
    41       H(    41  C     )   -9.3960000  *  -28.242000  *    6.905000  *
    42       H(    42  C     )  -10.6860000  *  -27.673000  *    7.991000  *
    43       C(    43  C     )   -7.4070000  *  -26.746000  *    7.626000  *
    44       H(    44  C     )   -6.7040000  *  -27.315000  *    8.235000  *
    45       H(    45  C     )   -7.4960000  *  -27.209000  *    6.645000  *
    46       H(    46  C     )   -7.0440000  *  -25.724000  *    7.514000  *
    47       C(    47  C     )   -4.2580000  *  -22.562000  *    8.364000  *
    48       H(    48  C     )   -3.5960000  *  -23.193000  *    8.956000  *
    49       H(    49  C     )   -5.0920000  *  -23.156000  *    7.993000  *
    50       H(    50  C     )   -3.7040000  *  -22.146000  *    7.522000  *
    51       C(    51  C     )   -4.3460000  *  -20.074000  *    8.664000  *
    52       H(    52  C     )   -3.6830000  *  -20.241000  *    7.815000  *
    53       H(    53  C     )   -5.2210000  *  -19.513000  *    8.338000  *
    54       H(    54  C     )   -3.8180000  *  -19.510000  *    9.432000  *
 


          CARTESIAN COORDINATES 

    NO.       ATOM         X         Y         Z

     1         C       -8.7760  -26.7300    8.3100
     2         C       -9.1770  -25.2930    8.6450
     3         C       -8.1400  -24.6630    9.5440
     4         C       -7.4570  -25.4230   10.4200
     5         C       -6.4170  -24.7930   11.3130
     6         C       -5.9820  -23.4580   10.7630
     7         C       -6.7540  -22.8170    9.8640
     8         C       -6.3160  -21.4840    9.3050
     9         C       -4.7900  -21.4230    9.2350
    10         C       -4.2820  -21.5800   10.6700
    11         C       -4.7670  -22.9000   11.2030
    12         O       -4.1000  -23.4940   12.0250
    13         O       -7.9200  -23.3420    9.4540
    14         C       -7.6940  -26.8060   10.5190
    15         O       -7.0710  -27.4640   11.3280
    16         C       -8.7080  -27.4850    9.6390
    17         H       -9.2550  -24.7160    7.7240
    18         H      -10.1420  -25.2970    9.1520
    19         H       -6.8360  -24.6520   12.3090
    20         H       -6.7290  -21.3590    8.3040
    21         H       -6.6820  -20.6850    9.9490
    22         H       -3.1920  -21.5580   10.6790
    23         H       -4.6710  -20.7690   11.2880
    24         H       -9.6840  -27.4670   10.1220
    25         H       -8.4070  -28.5170    9.4590
    26         C       -5.2210  -25.7060   11.4030
    27         C       -4.7690  -26.1370   12.6430
    28         C       -3.6700  -26.9770   12.7240
    29         C       -3.0240  -27.3840   11.5690
    30         H       -3.3160  -27.3130   13.6890
    31         C       -3.4780  -26.9500   10.3310
    32         C       -4.5770  -26.1180   10.2510
    33         H       -2.9750  -27.2670    9.4300
    34         H       -4.9310  -25.7820    9.2880
    35         O       -5.4060  -25.7370   13.7750
    36         H       -5.5320  -24.7800   13.8400
    37         O       -1.9450  -28.2070   11.6460
    38         H       -2.0950  -29.0880   11.2760
    39         C       -9.8250  -27.3690    7.3970
    40         H      -10.1400  -26.6450    6.6450
    41         H       -9.3960  -28.2420    6.9050
    42         H      -10.6860  -27.6730    7.9910
    43         C       -7.4070  -26.7460    7.6260
    44         H       -6.7040  -27.3150    8.2350
    45         H       -7.4960  -27.2090    6.6450
    46         H       -7.0440  -25.7240    7.5140
    47         C       -4.2580  -22.5620    8.3640
    48         H       -3.5960  -23.1930    8.9560
    49         H       -5.0920  -23.1560    7.9930
    50         H       -3.7040  -22.1460    7.5220
    51         C       -4.3460  -20.0740    8.6640
    52         H       -3.6830  -20.2410    7.8150
    53         H       -5.2210  -19.5130    8.3380
    54         H       -3.8180  -19.5100    9.4320

 General Reference for PM6:
 "Optimization of Parameters for Semiempirical Methods V: Modification of NDDO Approximations
 and Application to 70 Elements", J. J. P. Stewart, J. Mol. Mod., 13, 1173-1213 (2007)
 URL: http://www.springerlink.com/content/ar33482301010477/fulltext.pdf

           Empirical Formula: C23 H26 O5  =    54 atoms



      MOLECULAR POINT GROUP   :   C1  
 
   NUMBER AND TYPES OF BONDS IDENTIFIED
 
         SIGMA BONDS               57
         LONE PAIRS                10
         NORMAL PI BONDS            6
         AROMATIC RING PI BONDS     1
 
  SCF CRITERION =    0.1000E-02


          HEAT OF FORMATION =    -181.260811 KCALS/MOLE


          INTERNAL COORDINATE DERIVATIVES

   NUMBER  ATOM       BOND         ANGLE      DIHEDRAL

     1       C
     2       C     11.194473
     3       C      9.236236    -2.522867
     4       C    -28.924951   -19.040737   -13.538567
     5       C     37.336526    20.661114    24.989107
     6       C    -49.605993   -15.066900   -18.988112
     7       C      9.887923    -0.707229   -11.069479
     8       C      9.864034    48.304959    22.709911
     9       C    -20.489737   -41.449925   -16.217765
    10       C     17.881290    28.649136    19.770589
    11       C     -3.604275    -6.211937   -11.187546
    12       O     10.528701     7.967565     3.794266
    13       O    -12.375575   -46.765288    -9.108670
    14       C      6.019933   -38.653847    11.094898
    15       O    -39.602812    56.737940   -29.680076
    16       C     42.011597     5.808877    30.766103
    17       H     26.106541   -14.983570    23.556935
    18       H     -5.235302    -8.714160    -9.039225
    19       H     -9.288254    11.822955    -8.539140
    20       H    -10.308884     9.921046     9.093324
    21       H    -10.971087    -1.403095    18.762868
    22       H     -6.699555    14.168195    -6.946316
    23       H    -15.739694     4.459461     5.726097
    24       H     -2.713839   -13.800575    -3.692641
    25       H    -11.351644    -7.986482     4.646422
    26       C      1.002838     5.581561    14.563123
    27       C     12.685872     2.196627     7.143711
    28       C    -14.757001    18.091558    -3.413771
    29       C      1.641401    -4.899870   -10.629334
    30       H      5.290497   -26.509190    25.585024
    31       C     -5.004634    19.150804     1.636010
    32       C      1.388215    -5.275832     4.948504
    33       H     15.973976     1.779796   -19.730814
    34       H      0.710449     4.883256   -11.269230
    35       O      5.298551     0.407888    -6.298796
    36       H     -1.362165     6.493314    -6.182501
    37       O      9.376338   -13.486970    28.442120
    38       H    -13.841337     2.551548    -5.810135
    39       C      3.192573   -28.401410     0.170003
    40       H     11.084125     7.418104    -1.597118
    41       H     -6.506506    -6.493135     2.538928
    42       H      2.148683     7.681808    -2.099470
    43       C      4.637427     6.145314     0.335099
    44       H      1.850923     8.565892     2.094162
    45       H     -1.891728     1.297272     1.663534
    46       H      5.333044    -4.636569    -8.851210
    47       C      4.406850    -2.966962    -8.585238
    48       H      4.137319    -4.026210    -9.845848
    49       H     -1.300585     0.197022     0.900060
    50       H     10.368286    -0.108012    -5.073228
    51       C     10.282989     2.102906    -5.662735
    52       H      8.033019     1.031403    -5.410465
    53       H      1.483446     1.781802     8.122487
    54       H     -4.883398    -1.367249    -8.050150


          GRADIENT NORM = 196.05956



 ** GRADIENT IS TOO LARGE TO ALLOW FORCE MATRIX TO BE CALCULATED, (LIMIT=10) **



 EITHER ADD 'LET' OR REDUCE GRADIENT
 USING 'TS' OR OTHER GEOMETRY OPTIMIZER



 TOTAL CPU TIME:             1.33 SECONDS

 == MOPAC DONE ==
