 *******************************************************************************
 ** Site#:  958            For non-commercial use only         Version 9.015L **
 *******************************************************************************
 ** Cite this work as: MOPAC2009, James J. P. Stewart, Stewart Computational  **
 ** Chemistry, Version 9.015L web: HTTP://OpenMOPAC.net                       **
 *******************************************************************************
 **                                                                           **
 **                                MOPAC2009                                  **
 **                                                                           **
 *******************************************************************************

                            PM6 CALCULATION RESULTS


 *******************************************************************************
 *  CALCULATION DONE:                                Tue Sep  6 16:26:51 2011  *
 *  PM6      - The PM6 Hamiltonian to be used
 *
 *
 *
 *                 CHARGE ON SYSTEM =     0
 *
 *
 *
 *  EPS= 78.400
 *  RSOLV=  1.300
 *  LET      - OVERRIDE SOME SAFETY CHECKS
 *  XYZ      - CARTESIAN COORDINATE SYSTEM TO BE USED
 *  T=       - A TIME OF  0.3E+08 SECONDS REQUESTED
 *  DUMP=N   - RESTART FILE WRITTEN EVERY  4320.000 SECONDS
 *  DDMIN=   - MINIMUM TRUST RADIUS  0.000 ANG/RAD
 *  GNORM=   - EXIT WHEN GRADIENT NORM DROPS BELOW .150    
 *  RELSCF   - DEFAULT SCF CRITERION MULTIPLIED BY   0.100    
 *             (DEFAULT SCFCRT= 0.00010)
 *  SYBYL    - OUTPUT SYBYL FILE
 *  MULLIK   - THE MULLIKEN ANALYSIS TO BE PERFORMED
 *******************************************************************************
 PM6 T=31535641 DUMP=4320 XYZ EPS=78.40 RSOLV=1.30 MULLIK SYBYL +
 CHARGE=0 RELSCF=0.1 LET DDMIN=0.0 GNORM=0.15
 SJ000002349-1_T001S001I001C05: Geometry optimization step

   ATOM   CHEMICAL          X               Y              Z
  NUMBER   SYMBOL      (ANGSTROMS)     (ANGSTROMS)    (ANGSTROMS)
 
     1       C          0.0020000  *   -0.004000  *    0.002000  *
     2       C          0.7390000  *   -0.525000  *    1.237000  *
     3       C          0.7610000  *   -2.035000  *    1.227000  *
     4       C         -0.2600000  *   -2.720000  *    0.678000  *
     5       C         -0.2330000  *   -4.228000  *    0.663000  *
     6       C          1.1710000  *   -4.737000  *    0.874000  *
     7       C          2.1060000  *   -3.929000  *    1.409000  *
     8       C          3.5150000  *   -4.434000  *    1.612000  *
     9       C          3.8660000  *   -5.454000  *    0.529000  *
    10       C          2.8710000  *   -6.607000  *    0.678000  *
    11       C          1.4810000  *   -6.059000  *    0.504000  *
    12       O          0.6130000  *   -6.769000  *    0.038000  *
    13       O          1.8080000  *   -2.672000  *    1.775000  *
    14       C         -1.3600000  *   -2.051000  *    0.111000  *
    15       O         -2.2720000  *   -2.697000  *   -0.365000  *
    16       C         -1.4260000  *   -0.548000  *    0.085000  *
    17       H          1.7620000  *   -0.149000  *    1.232000  *
    18       H          0.2300000  *   -0.176000  *    2.135000  *
    19       H         -0.8760000  *   -4.607000  *    1.458000  *
    20       H          4.2100000  *   -3.596000  *    1.559000  *
    21       H          3.5920000  *   -4.905000  *    2.592000  *
    22       H          3.0660000  *   -7.362000  *   -0.084000  *
    23       H          2.9700000  *   -7.051000  *    1.669000  *
    24       H         -1.9050000  *   -0.186000  *    0.994000  *
    25       H         -1.9940000  *   -0.220000  *   -0.785000  *
    26       C         -0.7460000  *   -4.721000  *   -0.666000  *
    27       C         -1.8670000  *   -5.537000  *   -0.717000  *
    28       C         -2.3380000  *   -5.989000  *   -1.940000  *
    29       C         -1.6880000  *   -5.626000  *   -3.108000  *
    30       H         -3.2110000  *   -6.625000  *   -1.982000  *
    31       C         -0.5660000  *   -4.810000  *   -3.052000  *
    32       C         -0.1020000  *   -4.356000  *   -1.833000  *
    33       H         -0.0590000  *   -4.527000  *   -3.962000  *
    34       H          0.7700000  *   -3.720000  *   -1.791000  *
    35       O         -2.5040000  *   -5.891000  *    0.430000  *
    36       H         -3.2040000  *   -5.279000  *    0.697000  *
    37       O         -2.1470000  *   -6.068000  *   -4.308000  *
    38       H         -2.7960000  *   -5.482000  *   -4.721000  *
    39       C         -0.0190000  *    1.526000  *    0.010000  *
    40       H          1.0040000  *    1.903000  *    0.003000  *
    41       H         -0.5460000  *    1.887000  *   -0.873000  *
    42       H         -0.5290000  *    1.877000  *    0.907000  *
    43       C          0.6850000  *   -0.512000  *   -1.269000  *
    44       H          1.7090000  *   -0.139000  *   -1.305000  *
    45       H          0.6950000  *   -1.601000  *   -1.266000  *
    46       H          0.1390000  *   -0.156000  *   -2.143000  *
    47       C          3.7270000  *   -4.818000  *   -0.856000  *
    48       H          4.4020000  *   -3.966000  *   -0.933000  *
    49       H          3.9790000  *   -5.552000  *   -1.620000  *
    50       H          2.7000000  *   -4.481000  *   -0.999000  *
    51       C          5.2950000  *   -5.962000  *    0.731000  *
    52       H          5.3770000  *   -6.436000  *    1.709000  *
    53       H          5.5350000  *   -6.688000  *   -0.046000  *
    54       H          5.9900000  *   -5.125000  *    0.673000  *
 


          CARTESIAN COORDINATES 

    NO.       ATOM         X         Y         Z

     1         C        0.0020   -0.0040    0.0020
     2         C        0.7390   -0.5250    1.2370
     3         C        0.7610   -2.0350    1.2270
     4         C       -0.2600   -2.7200    0.6780
     5         C       -0.2330   -4.2280    0.6630
     6         C        1.1710   -4.7370    0.8740
     7         C        2.1060   -3.9290    1.4090
     8         C        3.5150   -4.4340    1.6120
     9         C        3.8660   -5.4540    0.5290
    10         C        2.8710   -6.6070    0.6780
    11         C        1.4810   -6.0590    0.5040
    12         O        0.6130   -6.7690    0.0380
    13         O        1.8080   -2.6720    1.7750
    14         C       -1.3600   -2.0510    0.1110
    15         O       -2.2720   -2.6970   -0.3650
    16         C       -1.4260   -0.5480    0.0850
    17         H        1.7620   -0.1490    1.2320
    18         H        0.2300   -0.1760    2.1350
    19         H       -0.8760   -4.6070    1.4580
    20         H        4.2100   -3.5960    1.5590
    21         H        3.5920   -4.9050    2.5920
    22         H        3.0660   -7.3620   -0.0840
    23         H        2.9700   -7.0510    1.6690
    24         H       -1.9050   -0.1860    0.9940
    25         H       -1.9940   -0.2200   -0.7850
    26         C       -0.7460   -4.7210   -0.6660
    27         C       -1.8670   -5.5370   -0.7170
    28         C       -2.3380   -5.9890   -1.9400
    29         C       -1.6880   -5.6260   -3.1080
    30         H       -3.2110   -6.6250   -1.9820
    31         C       -0.5660   -4.8100   -3.0520
    32         C       -0.1020   -4.3560   -1.8330
    33         H       -0.0590   -4.5270   -3.9620
    34         H        0.7700   -3.7200   -1.7910
    35         O       -2.5040   -5.8910    0.4300
    36         H       -3.2040   -5.2790    0.6970
    37         O       -2.1470   -6.0680   -4.3080
    38         H       -2.7960   -5.4820   -4.7210
    39         C       -0.0190    1.5260    0.0100
    40         H        1.0040    1.9030    0.0030
    41         H       -0.5460    1.8870   -0.8730
    42         H       -0.5290    1.8770    0.9070
    43         C        0.6850   -0.5120   -1.2690
    44         H        1.7090   -0.1390   -1.3050
    45         H        0.6950   -1.6010   -1.2660
    46         H        0.1390   -0.1560   -2.1430
    47         C        3.7270   -4.8180   -0.8560
    48         H        4.4020   -3.9660   -0.9330
    49         H        3.9790   -5.5520   -1.6200
    50         H        2.7000   -4.4810   -0.9990
    51         C        5.2950   -5.9620    0.7310
    52         H        5.3770   -6.4360    1.7090
    53         H        5.5350   -6.6880   -0.0460
    54         H        5.9900   -5.1250    0.6730

 General Reference for PM6:
 "Optimization of Parameters for Semiempirical Methods V: Modification of NDDO Approximations
 and Application to 70 Elements", J. J. P. Stewart, J. Mol. Mod., 13, 1173-1213 (2007)
 URL: http://www.springerlink.com/content/ar33482301010477/fulltext.pdf

           Empirical Formula: C23 H26 O5  =    54 atoms



      MOLECULAR POINT GROUP   :   C1  


      RHF CALCULATION, NO. OF DOUBLY OCCUPIED LEVELS =   74

      Geometry optimization using EF
  SCF CRITERION =    0.1000E-04

          DIAGONAL MATRIX USED AS START HESSIAN

 CYCLE:     1 TIME:   0.256 TIME LEFT: 16.53W  GRAD.:   195.448 HEAT:-185.2875
 CYCLE:     2 TIME:   0.146 TIME LEFT: 16.53W  GRAD.:   184.695 HEAT:-194.3432
 CYCLE:     3 TIME:   0.143 TIME LEFT: 16.53W  GRAD.:   187.590 HEAT:-199.8104
 CYCLE:     4 TIME:   0.145 TIME LEFT: 16.53W  GRAD.:   256.179 HEAT:-193.3374
 CYCLE:     5 TIME:   0.144 TIME LEFT: 16.53W  GRAD.:   254.895 HEAT:-197.0214
 CYCLE:     6 TIME:   0.143 TIME LEFT: 16.53W  GRAD.:   323.329 HEAT:-190.0601
 CYCLE:     7 TIME:   0.144 TIME LEFT: 16.53W  GRAD.:   204.831 HEAT:-198.5121
 CYCLE:     8 TIME:   0.143 TIME LEFT: 16.53W  GRAD.:   182.584 HEAT:-202.2492
 CYCLE:     9 TIME:   0.143 TIME LEFT: 16.53W  GRAD.:   284.450 HEAT:-193.4527
 CYCLE:    10 TIME:   0.144 TIME LEFT: 16.53W  GRAD.:   215.654 HEAT:-200.2101
 CYCLE:    11 TIME:   0.142 TIME LEFT: 16.53W  GRAD.:   233.164 HEAT:-198.6379
 CYCLE:    12 TIME:   0.143 TIME LEFT: 16.53W  GRAD.:   271.460 HEAT:-194.4495
 CYCLE:    13 TIME:   0.157 TIME LEFT: 16.53W  GRAD.:   190.202 HEAT:-203.1720
 CYCLE:    14 TIME:   0.141 TIME LEFT: 16.53W  GRAD.:   328.611 HEAT:-190.6260
 CYCLE:    15 TIME:   0.142 TIME LEFT: 16.53W  GRAD.:   272.617 HEAT:-195.4123
 CYCLE:    16 TIME:   0.144 TIME LEFT: 16.53W  GRAD.:   257.258 HEAT:-200.2518
 CYCLE:    17 TIME:   0.165 TIME LEFT: 16.53W  GRAD.:   334.414 HEAT:-191.1428
 CYCLE:    18 TIME:   0.168 TIME LEFT: 16.53W  GRAD.:   240.279 HEAT:-201.3062
 CYCLE:    19 TIME:   0.181 TIME LEFT: 16.53W  GRAD.:   246.509 HEAT:-198.5480
 CYCLE:    20 TIME:   0.146 TIME LEFT: 16.53W  GRAD.:   320.665 HEAT:-193.2038
 CYCLE:    21 TIME:   0.150 TIME LEFT: 16.53W  GRAD.:   216.607 HEAT:-201.7307
 CYCLE:    22 TIME:   0.141 TIME LEFT: 16.53W  GRAD.:   269.162 HEAT:-197.2933
 CYCLE:    23 TIME:   0.146 TIME LEFT: 16.53W  GRAD.:   235.309 HEAT:-200.3831
 CYCLE:    24 TIME:   0.150 TIME LEFT: 16.53W  GRAD.:   195.769 HEAT:-203.9844
 CYCLE:    25 TIME:   0.143 TIME LEFT: 16.53W  GRAD.:   286.426 HEAT:-197.0595
 CYCLE:    26 TIME:   0.144 TIME LEFT: 16.53W  GRAD.:   177.565 HEAT:-206.0711
 CYCLE:    27 TIME:   0.146 TIME LEFT: 16.53W  GRAD.:   301.990 HEAT:-196.7005
 CYCLE:    28 TIME:   0.144 TIME LEFT: 16.53W  GRAD.:   182.685 HEAT:-204.6542
 CYCLE:    29 TIME:   0.146 TIME LEFT: 16.53W  GRAD.:   228.185 HEAT:-201.9964
 CYCLE:    30 TIME:   0.142 TIME LEFT: 16.53W  GRAD.:   198.225 HEAT:-202.6991
 CYCLE:    31 TIME:   0.148 TIME LEFT: 16.53W  GRAD.:   178.139 HEAT:-206.2402
 CYCLE:    32 TIME:   0.146 TIME LEFT: 16.53W  GRAD.:   166.693 HEAT:-205.7131
 CYCLE:    33 TIME:   0.143 TIME LEFT: 16.53W  GRAD.:   167.191 HEAT:-206.9323
 CYCLE:    34 TIME:   0.143 TIME LEFT: 16.53W  GRAD.:   206.105 HEAT:-202.7810
 CYCLE:    35 TIME:   0.145 TIME LEFT: 16.53W  GRAD.:   160.874 HEAT:-207.9689
 CYCLE:    36 TIME:   0.142 TIME LEFT: 16.53W  GRAD.:   211.336 HEAT:-203.2202
 CYCLE:    37 TIME:   0.146 TIME LEFT: 16.53W  GRAD.:   166.008 HEAT:-207.1175
 CYCLE:    38 TIME:   0.142 TIME LEFT: 16.53W  GRAD.:   213.326 HEAT:-205.1320
 CYCLE:    39 TIME:   0.142 TIME LEFT: 16.53W  GRAD.:   173.191 HEAT:-206.3931
 CYCLE:    40 TIME:   0.142 TIME LEFT: 16.53W  GRAD.:   200.837 HEAT:-206.5858
 CYCLE:    41 TIME:   0.145 TIME LEFT: 16.53W  GRAD.:   109.851 HEAT:-212.9325
 CYCLE:    42 TIME:   0.150 TIME LEFT: 16.53W  GRAD.:   235.360 HEAT:-201.8314
 CYCLE:    43 TIME:   0.168 TIME LEFT: 16.53W  GRAD.:   104.317 HEAT:-213.0583
 CYCLE:    44 TIME:   0.141 TIME LEFT: 16.53W  GRAD.:   177.748 HEAT:-206.3103
 CYCLE:    45 TIME:   0.154 TIME LEFT: 16.53W  GRAD.:   104.756 HEAT:-213.3245
 CYCLE:    46 TIME:   0.141 TIME LEFT: 16.53W  GRAD.:   167.362 HEAT:-207.5373
 CYCLE:    47 TIME:   0.141 TIME LEFT: 16.53W  GRAD.:   126.821 HEAT:-211.7074
 CYCLE:    48 TIME:   0.144 TIME LEFT: 16.53W  GRAD.:   159.968 HEAT:-208.9394
 CYCLE:    49 TIME:   0.144 TIME LEFT: 16.53W  GRAD.:   127.040 HEAT:-211.9329
 CYCLE:    50 TIME:   0.142 TIME LEFT: 16.53W  GRAD.:   171.092 HEAT:-208.1475
 CYCLE:    51 TIME:   0.142 TIME LEFT: 16.53W  GRAD.:    95.715 HEAT:-214.2564
 CYCLE:    52 TIME:   0.142 TIME LEFT: 16.53W  GRAD.:   184.571 HEAT:-207.7388
 CYCLE:    53 TIME:   0.145 TIME LEFT: 16.53W  GRAD.:   113.347 HEAT:-213.3599
 CYCLE:    54 TIME:   0.144 TIME LEFT: 16.53W  GRAD.:   173.682 HEAT:-209.8390
 CYCLE:    55 TIME:   0.144 TIME LEFT: 16.53W  GRAD.:    79.054 HEAT:-216.2730
 CYCLE:    56 TIME:   0.141 TIME LEFT: 16.53W  GRAD.:   194.961 HEAT:-206.1059
 CYCLE:    57 TIME:   0.149 TIME LEFT: 16.53W  GRAD.:    56.227 HEAT:-217.5752
 CYCLE:    58 TIME:   0.140 TIME LEFT: 16.53W  GRAD.:   170.131 HEAT:-207.3362
 CYCLE:    59 TIME:   0.150 TIME LEFT: 16.53W  GRAD.:    51.985 HEAT:-218.1665
 CYCLE:    60 TIME:   0.141 TIME LEFT: 16.53W  GRAD.:   203.192 HEAT:-202.6916
 CYCLE:    61 TIME:   0.146 TIME LEFT: 16.53W  GRAD.:    57.868 HEAT:-218.3904
 CYCLE:    62 TIME:   0.141 TIME LEFT: 16.53W  GRAD.:   253.403 HEAT:-195.0088
 CYCLE:    63 TIME:   0.144 TIME LEFT: 16.53W  GRAD.:    58.072 HEAT:-218.8443
 CYCLE:    64 TIME:   0.189 TIME LEFT: 16.53W  GRAD.:   240.922 HEAT:-195.4728
 CYCLE:    65 TIME:   0.145 TIME LEFT: 16.53W  GRAD.:    38.421 HEAT:-219.9790
 CYCLE:    66 TIME:   0.141 TIME LEFT: 16.53W  GRAD.:   139.009 HEAT:-212.3183
 CYCLE:    67 TIME:   0.142 TIME LEFT: 16.53W  GRAD.:    40.547 HEAT:-220.3958
 CYCLE:    68 TIME:   0.137 TIME LEFT: 16.53W  GRAD.:   144.625 HEAT:-211.8419
 CYCLE:    69 TIME:   0.143 TIME LEFT: 16.53W  GRAD.:    27.268 HEAT:-221.1873
 CYCLE:    70 TIME:   0.140 TIME LEFT: 16.53W  GRAD.:   130.318 HEAT:-215.5477
 CYCLE:    71 TIME:   0.136 TIME LEFT: 16.53W  GRAD.:    34.429 HEAT:-221.5817
 CYCLE:    72 TIME:   0.136 TIME LEFT: 16.53W  GRAD.:   150.712 HEAT:-213.3135
 CYCLE:    73 TIME:   0.141 TIME LEFT: 16.53W  GRAD.:    26.385 HEAT:-222.4448
 CYCLE:    74 TIME:   0.141 TIME LEFT: 16.53W  GRAD.:   101.058 HEAT:-218.6369
 CYCLE:    75 TIME:   0.133 TIME LEFT: 16.53W  GRAD.:    26.154 HEAT:-223.1255
 CYCLE:    76 TIME:   0.141 TIME LEFT: 16.53W  GRAD.:   103.185 HEAT:-219.3057
 CYCLE:    77 TIME:   0.141 TIME LEFT: 16.53W  GRAD.:    22.199 HEAT:-223.8111
 CYCLE:    78 TIME:   0.135 TIME LEFT: 16.53W  GRAD.:    90.059 HEAT:-221.1582
 CYCLE:    79 TIME:   0.135 TIME LEFT: 16.53W  GRAD.:    25.888 HEAT:-224.4759
 CYCLE:    80 TIME:   0.142 TIME LEFT: 16.53W  GRAD.:    74.445 HEAT:-222.2508
 CYCLE:    81 TIME:   0.134 TIME LEFT: 16.53W  GRAD.:    29.102 HEAT:-225.0602
 CYCLE:    82 TIME:   0.140 TIME LEFT: 16.53W  GRAD.:   125.496 HEAT:-219.1900
 CYCLE:    83 TIME:   0.136 TIME LEFT: 16.53W  GRAD.:    21.996 HEAT:-225.5474
 CYCLE:    84 TIME:   0.142 TIME LEFT: 16.53W  GRAD.:   110.374 HEAT:-221.3419
 CYCLE:    85 TIME:   0.137 TIME LEFT: 16.53W  GRAD.:    21.349 HEAT:-225.7106
 CYCLE:    86 TIME:   0.136 TIME LEFT: 16.53W  GRAD.:    75.040 HEAT:-223.4320
 CYCLE:    87 TIME:   0.133 TIME LEFT: 16.53W  GRAD.:    20.461 HEAT:-225.9183
 CYCLE:    88 TIME:   0.138 TIME LEFT: 16.53W  GRAD.:    77.034 HEAT:-223.2344
 CYCLE:    89 TIME:   0.133 TIME LEFT: 16.53W  GRAD.:    12.047 HEAT:-226.1304
 CYCLE:    90 TIME:   0.133 TIME LEFT: 16.53W  GRAD.:    54.257 HEAT:-225.0788
 CYCLE:    91 TIME:   0.132 TIME LEFT: 16.53W  GRAD.:     8.749 HEAT:-226.1631
 CYCLE:    92 TIME:   0.132 TIME LEFT: 16.53W  GRAD.:    25.101 HEAT:-225.9249
 CYCLE:    93 TIME:   0.128 TIME LEFT: 16.53W  GRAD.:     8.360 HEAT:-226.2552
 CYCLE:    94 TIME:   0.132 TIME LEFT: 16.53W  GRAD.:    31.772 HEAT:-225.8784
 CYCLE:    95 TIME:   0.129 TIME LEFT: 16.53W  GRAD.:     6.222 HEAT:-226.2705
 CYCLE:    96 TIME:   0.127 TIME LEFT: 16.53W  GRAD.:    19.377 HEAT:-226.1452
 CYCLE:    97 TIME:   0.128 TIME LEFT: 16.53W  GRAD.:     5.620 HEAT:-226.4083
 CYCLE:    98 TIME:   0.132 TIME LEFT: 16.53W  GRAD.:    21.152 HEAT:-226.3244
 CYCLE:    99 TIME:   0.127 TIME LEFT: 16.53W  GRAD.:     6.205 HEAT:-226.5036
 CYCLE:   100 TIME:   0.133 TIME LEFT: 16.53W  GRAD.:    16.914 HEAT:-226.4739
 CYCLE:   101 TIME:   0.127 TIME LEFT: 16.53W  GRAD.:     7.787 HEAT:-226.5766
 CYCLE:   102 TIME:   0.132 TIME LEFT: 16.53W  GRAD.:    25.949 HEAT:-226.3779
 CYCLE:   103 TIME:   0.128 TIME LEFT: 16.53W  GRAD.:     5.063 HEAT:-226.6714
 CYCLE:   104 TIME:   0.128 TIME LEFT: 16.53W  GRAD.:    17.740 HEAT:-226.5519
 CYCLE:   105 TIME:   0.127 TIME LEFT: 16.53W  GRAD.:     5.420 HEAT:-226.6393
 CYCLE:   106 TIME:   0.132 TIME LEFT: 16.53W  GRAD.:    17.232 HEAT:-226.6080
 CYCLE:   107 TIME:   0.128 TIME LEFT: 16.53W  GRAD.:     5.589 HEAT:-226.7016
 CYCLE:   108 TIME:   0.127 TIME LEFT: 16.53W  GRAD.:    23.000 HEAT:-226.6210
 CYCLE:   109 TIME:   0.127 TIME LEFT: 16.53W  GRAD.:     4.935 HEAT:-226.7883
 CYCLE:   110 TIME:   0.132 TIME LEFT: 16.53W  GRAD.:    12.452 HEAT:-226.8559
 CYCLE:   111 TIME:   0.132 TIME LEFT: 16.53W  GRAD.:     7.709 HEAT:-226.9160
 CYCLE:   112 TIME:   0.132 TIME LEFT: 16.53W  GRAD.:    27.911 HEAT:-226.7249
 CYCLE:   113 TIME:   0.131 TIME LEFT: 16.53W  GRAD.:    10.812 HEAT:-227.0263
 CYCLE:   114 TIME:   0.132 TIME LEFT: 16.53W  GRAD.:    20.925 HEAT:-226.9635
 CYCLE:   115 TIME:   0.131 TIME LEFT: 16.53W  GRAD.:    13.907 HEAT:-227.1379
 CYCLE:   116 TIME:   0.132 TIME LEFT: 16.53W  GRAD.:    31.837 HEAT:-226.8474
 CYCLE:   117 TIME:   0.131 TIME LEFT: 16.53W  GRAD.:     6.036 HEAT:-227.1178
 CYCLE:   118 TIME:   0.132 TIME LEFT: 16.53W  GRAD.:    15.272 HEAT:-227.0750
 CYCLE:   119 TIME:   0.127 TIME LEFT: 16.53W  GRAD.:     5.443 HEAT:-227.2392
 CYCLE:   120 TIME:   0.131 TIME LEFT: 16.53W  GRAD.:    19.016 HEAT:-227.2584
 CYCLE:   121 TIME:   0.127 TIME LEFT: 16.53W  GRAD.:     8.576 HEAT:-227.3539
 CYCLE:   122 TIME:   0.131 TIME LEFT: 16.53W  GRAD.:    17.476 HEAT:-227.2911
 CYCLE:   123 TIME:   0.132 TIME LEFT: 16.53W  GRAD.:     4.521 HEAT:-227.4962
 CYCLE:   124 TIME:   0.132 TIME LEFT: 16.53W  GRAD.:    14.552 HEAT:-227.4688
 CYCLE:   125 TIME:   0.131 TIME LEFT: 16.53W  GRAD.:     6.723 HEAT:-227.4864
 CYCLE:   126 TIME:   0.132 TIME LEFT: 16.53W  GRAD.:     9.835 HEAT:-227.5370
 CYCLE:   127 TIME:   0.131 TIME LEFT: 16.53W  GRAD.:     5.391 HEAT:-227.6356
 CYCLE:   128 TIME:   0.132 TIME LEFT: 16.53W  GRAD.:     9.316 HEAT:-227.6876
 CYCLE:   129 TIME:   0.131 TIME LEFT: 16.53W  GRAD.:     8.261 HEAT:-227.8588
 CYCLE:   130 TIME:   0.132 TIME LEFT: 16.53W  GRAD.:     7.397 HEAT:-227.9695
 CYCLE:   131 TIME:   0.131 TIME LEFT: 16.53W  GRAD.:     5.764 HEAT:-228.0757
 CYCLE:   132 TIME:   0.133 TIME LEFT: 16.53W  GRAD.:     9.395 HEAT:-228.1008
 CYCLE:   133 TIME:   0.132 TIME LEFT: 16.53W  GRAD.:     7.676 HEAT:-228.1669
 CYCLE:   134 TIME:   0.132 TIME LEFT: 16.53W  GRAD.:     8.375 HEAT:-228.3326
 CYCLE:   135 TIME:   0.132 TIME LEFT: 16.53W  GRAD.:     8.311 HEAT:-228.4504
 CYCLE:   136 TIME:   0.132 TIME LEFT: 16.53W  GRAD.:     4.849 HEAT:-228.5052
 CYCLE:   137 TIME:   0.132 TIME LEFT: 16.53W  GRAD.:     7.948 HEAT:-228.6399
 CYCLE:   138 TIME:   0.132 TIME LEFT: 16.53W  GRAD.:     6.634 HEAT:-228.7715
 CYCLE:   139 TIME:   0.131 TIME LEFT: 16.53W  GRAD.:     9.785 HEAT:-228.8216
 CYCLE:   140 TIME:   0.132 TIME LEFT: 16.53W  GRAD.:    12.812 HEAT:-228.7981
 CYCLE:   141 TIME:   0.134 TIME LEFT: 16.53W  GRAD.:     6.000 HEAT:-228.9747
 CYCLE:   142 TIME:   0.131 TIME LEFT: 16.53W  GRAD.:     5.328 HEAT:-229.1573
 CYCLE:   143 TIME:   0.132 TIME LEFT: 16.53W  GRAD.:     6.702 HEAT:-229.2643
 CYCLE:   144 TIME:   0.131 TIME LEFT: 16.53W  GRAD.:     5.102 HEAT:-229.3891
 CYCLE:   145 TIME:   0.131 TIME LEFT: 16.53W  GRAD.:     9.262 HEAT:-229.4867
 CYCLE:   146 TIME:   0.132 TIME LEFT: 16.53W  GRAD.:     9.586 HEAT:-229.5963
 CYCLE:   147 TIME:   0.130 TIME LEFT: 16.53W  GRAD.:    10.102 HEAT:-229.7476
 CYCLE:   148 TIME:   0.130 TIME LEFT: 16.53W  GRAD.:     6.442 HEAT:-229.7814
 CYCLE:   149 TIME:   0.133 TIME LEFT: 16.53W  GRAD.:     5.292 HEAT:-229.8357
 CYCLE:   150 TIME:   0.130 TIME LEFT: 16.53W  GRAD.:     5.005 HEAT:-229.9125
 CYCLE:   151 TIME:   0.130 TIME LEFT: 16.53W  GRAD.:     4.952 HEAT:-229.8919
 CYCLE:   152 TIME:   0.127 TIME LEFT: 16.53W  GRAD.:     4.415 HEAT:-229.9662
 CYCLE:   153 TIME:   0.131 TIME LEFT: 16.53W  GRAD.:     2.737 HEAT:-229.9912
 CYCLE:   154 TIME:   0.131 TIME LEFT: 16.53W  GRAD.:     2.833 HEAT:-230.0527
 CYCLE:   155 TIME:   0.132 TIME LEFT: 16.53W  GRAD.:     2.509 HEAT:-230.0733
 CYCLE:   156 TIME:   0.131 TIME LEFT: 16.53W  GRAD.:     3.307 HEAT:-230.0707
 CYCLE:   157 TIME:   0.131 TIME LEFT: 16.53W  GRAD.:     2.690 HEAT:-230.0911
 CYCLE:   158 TIME:   0.131 TIME LEFT: 16.53W  GRAD.:     2.600 HEAT:-230.1364
 CYCLE:   159 TIME:   0.131 TIME LEFT: 16.53W  GRAD.:     2.548 HEAT:-230.1505
 CYCLE:   160 TIME:   0.131 TIME LEFT: 16.53W  GRAD.:     2.491 HEAT:-230.2040
 CYCLE:   161 TIME:   0.131 TIME LEFT: 16.53W  GRAD.:     2.230 HEAT:-230.2119
 CYCLE:   162 TIME:   0.133 TIME LEFT: 16.53W  GRAD.:     2.829 HEAT:-230.2993
 CYCLE:   163 TIME:   0.132 TIME LEFT: 16.53W  GRAD.:     2.494 HEAT:-230.3153
 CYCLE:   164 TIME:   0.133 TIME LEFT: 16.53W  GRAD.:     2.084 HEAT:-230.3389
 CYCLE:   165 TIME:   0.131 TIME LEFT: 16.53W  GRAD.:     2.472 HEAT:-230.3151
 CYCLE:   166 TIME:   0.133 TIME LEFT: 16.53W  GRAD.:     4.739 HEAT:-230.3314
 CYCLE:   167 TIME:   0.127 TIME LEFT: 16.53W  GRAD.:     2.193 HEAT:-230.3307
 CYCLE:   168 TIME:   0.132 TIME LEFT: 16.53W  GRAD.:     1.606 HEAT:-230.3378
 CYCLE:   169 TIME:   0.132 TIME LEFT: 16.53W  GRAD.:     0.994 HEAT:-230.3408
 CYCLE:   170 TIME:   0.132 TIME LEFT: 16.53W  GRAD.:     1.278 HEAT:-230.3722
 CYCLE:   171 TIME:   0.132 TIME LEFT: 16.53W  GRAD.:     1.017 HEAT:-230.3749
 CYCLE:   172 TIME:   0.132 TIME LEFT: 16.53W  GRAD.:     0.816 HEAT:-230.3899
 CYCLE:   173 TIME:   0.133 TIME LEFT: 16.53W  GRAD.:     1.132 HEAT:-230.3962
 CYCLE:   174 TIME:   0.131 TIME LEFT: 16.53W  GRAD.:     0.990 HEAT:-230.3981
 CYCLE:   175 TIME:   0.132 TIME LEFT: 16.53W  GRAD.:     0.975 HEAT:-230.4129
 CYCLE:   176 TIME:   0.137 TIME LEFT: 16.53W  GRAD.:     0.830 HEAT:-230.4051
 CYCLE:   177 TIME:   0.131 TIME LEFT: 16.53W  GRAD.:     1.244 HEAT:-230.4083
 CYCLE:   178 TIME:   0.132 TIME LEFT: 16.53W  GRAD.:     1.511 HEAT:-230.3689
 CYCLE:   179 TIME:   0.132 TIME LEFT: 16.53W  GRAD.:     1.121 HEAT:-230.3825
 CYCLE:   180 TIME:   0.132 TIME LEFT: 16.53W  GRAD.:     0.901 HEAT:-230.3813
 CYCLE:   181 TIME:   0.132 TIME LEFT: 16.53W  GRAD.:     0.995 HEAT:-230.3992
 CYCLE:   182 TIME:   0.132 TIME LEFT: 16.53W  GRAD.:     0.962 HEAT:-230.4195
 CYCLE:   183 TIME:   0.132 TIME LEFT: 16.53W  GRAD.:     0.884 HEAT:-230.4057
 CYCLE:   184 TIME:   0.131 TIME LEFT: 16.53W  GRAD.:     0.787 HEAT:-230.4144
 CYCLE:   185 TIME:   0.132 TIME LEFT: 16.53W  GRAD.:     0.807 HEAT:-230.4223
 CYCLE:   186 TIME:   0.132 TIME LEFT: 16.53W  GRAD.:     0.833 HEAT:-230.4450
 CYCLE:   187 TIME:   0.131 TIME LEFT: 16.53W  GRAD.:     0.830 HEAT:-230.4791
 CYCLE:   188 TIME:   0.131 TIME LEFT: 16.53W  GRAD.:     0.876 HEAT:-230.4868
 CYCLE:   189 TIME:   0.131 TIME LEFT: 16.53W  GRAD.:     1.083 HEAT:-230.4769
 CYCLE:   190 TIME:   0.140 TIME LEFT: 16.53W  GRAD.:     1.303 HEAT:-230.4598
 CYCLE:   191 TIME:   0.136 TIME LEFT: 16.53W  GRAD.:     1.359 HEAT:-230.4341
 CYCLE:   192 TIME:   0.132 TIME LEFT: 16.53W  GRAD.:     1.112 HEAT:-230.4228
 CYCLE:   193 TIME:   0.137 TIME LEFT: 16.53W  GRAD.:     1.000 HEAT:-230.4330
 CYCLE:   194 TIME:   0.131 TIME LEFT: 16.53W  GRAD.:     0.976 HEAT:-230.4504
 CYCLE:   195 TIME:   0.133 TIME LEFT: 16.53W  GRAD.:     0.777 HEAT:-230.4498
 CYCLE:   196 TIME:   0.140 TIME LEFT: 16.53W  GRAD.:     0.953 HEAT:-230.3925
 CYCLE:   197 TIME:   0.140 TIME LEFT: 16.53W  GRAD.:     0.884 HEAT:-230.4030
 CYCLE:   198 TIME:   0.136 TIME LEFT: 16.53W  GRAD.:     0.969 HEAT:-230.5142
 CYCLE:   199 TIME:   0.131 TIME LEFT: 16.53W  GRAD.:     0.987 HEAT:-230.5165
 CYCLE:   200 TIME:   0.140 TIME LEFT: 16.53W  GRAD.:     1.075 HEAT:-230.5426
 CYCLE:   201 TIME:   0.135 TIME LEFT: 16.53W  GRAD.:     1.186 HEAT:-230.5454
 CYCLE:   202 TIME:   0.140 TIME LEFT: 16.53W  GRAD.:     1.829 HEAT:-230.5471
 CYCLE:   203 TIME:   0.141 TIME LEFT: 16.53W  GRAD.:     2.020 HEAT:-230.5540
 CYCLE:   204 TIME:   0.139 TIME LEFT: 16.53W  GRAD.:     2.064 HEAT:-230.4946
 CYCLE:   205 TIME:   0.141 TIME LEFT: 16.53W  GRAD.:     2.112 HEAT:-230.6061
 CYCLE:   206 TIME:   0.135 TIME LEFT: 16.53W  GRAD.:     2.201 HEAT:-230.6056
 CYCLE:   207 TIME:   0.130 TIME LEFT: 16.53W  GRAD.:     2.302 HEAT:-230.6006
 CYCLE:   208 TIME:   0.131 TIME LEFT: 16.53W  GRAD.:     2.672 HEAT:-230.5941
 CYCLE:   209 TIME:   0.132 TIME LEFT: 16.53W  GRAD.:     2.586 HEAT:-230.6198
 CYCLE:   210 TIME:   0.135 TIME LEFT: 16.53W  GRAD.:     3.071 HEAT:-230.7321
 CYCLE:   211 TIME:   0.135 TIME LEFT: 16.53W  GRAD.:     3.803 HEAT:-230.8396
 CYCLE:   212 TIME:   0.140 TIME LEFT: 16.53W  GRAD.:     5.637 HEAT:-231.0701
 CYCLE:   213 TIME:   0.146 TIME LEFT: 16.53W  GRAD.:    10.522 HEAT:-231.0465
 CYCLE:   214 TIME:   0.143 TIME LEFT: 16.53W  GRAD.:    14.217 HEAT:-231.0025
 CYCLE:   215 TIME:   0.135 TIME LEFT: 16.53W  GRAD.:    13.264 HEAT:-230.9494
 CYCLE:   216 TIME:   0.141 TIME LEFT: 16.53W  GRAD.:    21.251 HEAT:-230.8896
 CYCLE:   217 TIME:   0.132 TIME LEFT: 16.53W  GRAD.:    15.251 HEAT:-231.0135
 CYCLE:   218 TIME:   0.131 TIME LEFT: 16.53W  GRAD.:    10.453 HEAT:-231.2154
 CYCLE:   219 TIME:   0.132 TIME LEFT: 16.53W  GRAD.:     5.115 HEAT:-231.2708
 CYCLE:   220 TIME:   0.131 TIME LEFT: 16.53W  GRAD.:     6.865 HEAT:-231.2311
 CYCLE:   221 TIME:   0.131 TIME LEFT: 16.53W  GRAD.:     4.075 HEAT:-231.2904
 CYCLE:   222 TIME:   0.131 TIME LEFT: 16.53W  GRAD.:     3.097 HEAT:-231.3777
 CYCLE:   223 TIME:   0.131 TIME LEFT: 16.53W  GRAD.:     4.248 HEAT:-231.3987
 CYCLE:   224 TIME:   0.132 TIME LEFT: 16.53W  GRAD.:     5.541 HEAT:-231.4558
 CYCLE:   225 TIME:   0.130 TIME LEFT: 16.53W  GRAD.:     5.709 HEAT:-231.5067
 CYCLE:   226 TIME:   0.131 TIME LEFT: 16.53W  GRAD.:     4.444 HEAT:-231.5830
 CYCLE:   227 TIME:   0.131 TIME LEFT: 16.53W  GRAD.:     3.102 HEAT:-231.6438
 CYCLE:   228 TIME:   0.130 TIME LEFT: 16.53W  GRAD.:     2.405 HEAT:-231.6464
 CYCLE:   229 TIME:   0.131 TIME LEFT: 16.53W  GRAD.:     4.117 HEAT:-231.6745
 CYCLE:   230 TIME:   0.131 TIME LEFT: 16.53W  GRAD.:     3.858 HEAT:-231.7218
 CYCLE:   231 TIME:   0.130 TIME LEFT: 16.53W  GRAD.:     3.201 HEAT:-231.7288
 CYCLE:   232 TIME:   0.131 TIME LEFT: 16.53W  GRAD.:     3.074 HEAT:-231.7390
 CYCLE:   233 TIME:   0.130 TIME LEFT: 16.53W  GRAD.:     2.611 HEAT:-231.7271
 CYCLE:   234 TIME:   0.132 TIME LEFT: 16.53W  GRAD.:     1.894 HEAT:-231.7329
 CYCLE:   235 TIME:   0.131 TIME LEFT: 16.53W  GRAD.:     1.771 HEAT:-231.7381
 CYCLE:   236 TIME:   0.130 TIME LEFT: 16.53W  GRAD.:     1.890 HEAT:-231.7236
 CYCLE:   237 TIME:   0.130 TIME LEFT: 16.53W  GRAD.:     1.658 HEAT:-231.7162
 CYCLE:   238 TIME:   0.130 TIME LEFT: 16.53W  GRAD.:     1.251 HEAT:-231.7571
 CYCLE:   239 TIME:   0.131 TIME LEFT: 16.53W  GRAD.:     0.980 HEAT:-231.7397
 CYCLE:   240 TIME:   0.130 TIME LEFT: 16.53W  GRAD.:     0.653 HEAT:-231.7539
 CYCLE:   241 TIME:   0.130 TIME LEFT: 16.53W  GRAD.:     0.589 HEAT:-231.7571
 CYCLE:   242 TIME:   0.130 TIME LEFT: 16.53W  GRAD.:     0.609 HEAT:-231.7558
 CYCLE:   243 TIME:   0.130 TIME LEFT: 16.53W  GRAD.:     0.515 HEAT:-231.7620
 CYCLE:   244 TIME:   0.131 TIME LEFT: 16.53W  GRAD.:     0.363 HEAT:-231.7738
 CYCLE:   245 TIME:   0.130 TIME LEFT: 16.53W  GRAD.:     0.434 HEAT:-231.7692
 CYCLE:   246 TIME:   0.130 TIME LEFT: 16.53W  GRAD.:     0.284 HEAT:-231.7650
 CYCLE:   247 TIME:   0.130 TIME LEFT: 16.53W  GRAD.:     0.204 HEAT:-231.7619
 CYCLE:   248 TIME:   0.120 TIME LEFT: 16.53W  GRAD.:     0.190 HEAT:-231.7619
 CYCLE:   249 TIME:   0.130 TIME LEFT: 16.53W  GRAD.:     0.318 HEAT:-231.7728
 CYCLE:   250 TIME:   0.126 TIME LEFT: 16.53W  GRAD.:     0.348 HEAT:-231.7644
 CYCLE:   251 TIME:   0.126 TIME LEFT: 16.53W  GRAD.:     0.311 HEAT:-231.7647
 CYCLE:   252 TIME:   0.129 TIME LEFT: 16.53W  GRAD.:     0.282 HEAT:-231.7676
 CYCLE:   253 TIME:   0.130 TIME LEFT: 16.53W  GRAD.:     0.408 HEAT:-231.7728
 CYCLE:   254 TIME:   0.130 TIME LEFT: 16.53W  GRAD.:     0.274 HEAT:-231.7720
 CYCLE:   255 TIME:   0.127 TIME LEFT: 16.53W  GRAD.:     0.171 HEAT:-231.7704
 CYCLE:   256 TIME:   0.125 TIME LEFT: 16.53W  GRAD.:     0.180 HEAT:-231.7586
 CYCLE:   257 TIME:   0.130 TIME LEFT: 16.53W  GRAD.:     0.433 HEAT:-231.7676
 CYCLE:   258 TIME:   0.130 TIME LEFT: 16.53W  GRAD.:     0.151 HEAT:-231.7670
 CYCLE:   259 TIME:   0.126 TIME LEFT: 16.53W  GRAD.:     0.103 HEAT:-231.7673

     RMS GRADIENT =  0.10310  IS LESS THAN CUTOFF =  0.15000



 -------------------------------------------------------------------------------
 PM6 T=31535641 DUMP=4320 XYZ EPS=78.40 RSOLV=1.30 MULLIK SYBYL +
 CHARGE=0 RELSCF=0.1 LET DDMIN=0.0 GNORM=0.15
 SJ000002349-1_T001S001I001C05: Geometry optimization step



     GEOMETRY OPTIMISED USING EIGENVECTOR FOLLOWING (EF).     
     SCF FIELD WAS ACHIEVED                                   


                               PM6     CALCULATION
                                                       MOPAC2009 (Version: 9.015L)
                                                       Tue Sep  6 16:27:27 2011




          FINAL HEAT OF FORMATION =       -231.76733 KCAL =    -969.71451 KJ
          VAN DER WAALS AREA      =        367.74 SQUARE ANGSTROMS


          TOTAL ENERGY            =      -4629.84212 EV
          ELECTRONIC ENERGY       =      -8802.64663 EV  POINT GROUP:     C1  
          CORE-CORE REPULSION     =       4172.80451 EV
          DIELECTRIC ENERGY       =         -1.41974 EV
          COSMO AREA              =        367.74 SQUARE ANGSTROMS
          COSMO VOLUME            =        460.16 CUBIC ANGSTROMS

          IONIZATION POTENTIAL    =          9.148492 EV
          HOMO LUMO ENERGIES (EV) =         -9.148 -0.959
          NO. OF FILLED LEVELS    =         74
          MOLECULAR WEIGHT        =        382.455

          MOLECULAR DIMENSIONS (Angstroms)

            Atom       Atom       Distance
            H    52    H    38    10.72560
            H    41    H    49    10.31685
            H    44    H    36     5.57532


          SCF CALCULATIONS        =        261
          COMPUTATION TIME        =         35.427 SECONDS




   ATOM   CHEMICAL          X               Y              Z
  NUMBER   SYMBOL      (ANGSTROMS)     (ANGSTROMS)    (ANGSTROMS)
 
     1       C         -0.3955871  *    0.126842  *    0.181218  *
     2       C          0.9511633  *   -0.500389  *    0.650144  *
     3       C          0.8913194  *   -1.978685  *    0.610324  *
     4       C         -0.2271666  *   -2.744339  *    0.622926  *
     5       C         -0.1608666  *   -4.245732  *    0.461886  *
     6       C          1.2317830  *   -4.733513  *    0.779926  *
     7       C          2.2957526  *   -3.898104  *    0.780418  *
     8       C          3.7146580  *   -4.263638  *    0.989163  *
     9       C          3.9531089  *   -5.770759  *    0.674329  *
    10       C          2.8464448  *   -6.611425  *    1.357897  *
    11       C          1.4376458  *   -6.159203  *    1.079570  *
    12       O          0.5071735  *   -6.953046  *    1.150932  *
    13       O          2.1721760  *   -2.520501  *    0.588014  *
    14       C         -1.5296570  *   -2.098256  *    0.786464  *
    15       O         -2.5739913  *   -2.749223  *    0.889327  *
    16       C         -1.5674110  *   -0.601162  *    0.889102  *
    17       H          1.7949068  *   -0.108000  *    0.037391  *
    18       H          1.1954181  *   -0.162371  *    1.687390  *
    19       H         -0.8770138  *   -4.719585  *    1.194515  *
    20       H          4.3957976  *   -3.627363  *    0.379055  *
    21       H          4.0094013  *   -4.037782  *    2.042830  *
    22       H          2.9653905  *   -7.681663  *    1.081212  *
    23       H          2.9968651  *   -6.603775  *    2.463894  *
    24       H         -1.5843469  *   -0.327131  *    1.971641  *
    25       H         -2.5367509  *   -0.212578  *    0.504791  *
    26       C         -0.5747821  *   -4.642948  *   -0.941230  *
    27       C         -1.8982257  *   -5.065817  *   -1.202122  *
    28       C         -2.3066655  *   -5.522744  *   -2.462504  *
    29       C         -1.3533986  *   -5.512219  *   -3.486549  *
    30       H         -3.3264304  *   -5.860231  *   -2.627093  *
    31       C         -0.0393398  *   -5.058290  *   -3.285802  *
    32       C          0.3283819  *   -4.628386  *   -2.010902  *
    33       H          0.6679967  *   -5.048430  *   -4.111325  *
    34       H          1.3508822  *   -4.275711  *   -1.845071  *
    35       O         -2.8700038  *   -5.070260  *   -0.243170  *
    36       H         -2.6204419  *   -4.467382  *    0.562420  *
    37       O         -1.6453467  *   -5.934127  *   -4.754305  *
    38       H         -2.5927166  *   -6.260510  *   -4.843481  *
    39       C         -0.4120650  *    1.609372  *    0.571064  *
    40       H          0.4114819  *    2.160042  *    0.099313  *
    41       H         -1.3431807  *    2.097648  *    0.256134  *
    42       H         -0.3213783  *    1.757360  *    1.653985  *
    43       C         -0.5336781  *   -0.018421  *   -1.339868  *
    44       H          0.2771988  *    0.496309  *   -1.870194  *
    45       H         -0.5155423  *   -1.065743  *   -1.660910  *
    46       H         -1.4743935  *    0.415384  *   -1.701379  *
    47       C          3.9207442  *   -5.996782  *   -0.843170  *
    48       H          4.6887545  *   -5.404605  *   -1.356394  *
    49       H          4.1103642  *   -7.047725  *   -1.096107  *
    50       H          2.9551431  *   -5.727878  *   -1.283900  *
    51       C          5.3204169  *   -6.180694  *    1.234941  *
    52       H          5.3869231  *   -6.034417  *    2.319813  *
    53       H          5.5338929  *   -7.239343  *    1.040022  *
    54       H          6.1335350  *   -5.601854  *    0.779523  *

           Empirical Formula: C23 H26 O5  =    54 atoms



      MOLECULAR POINT GROUP   :   C1  


                  EIGENVALUES  
 -32.28059 -31.92315 -31.78586 -31.11355 -30.93998 -30.57179 -30.23170 -29.83358
 -28.82253 -27.85345 -26.62860 -26.38155 -26.06622 -25.54585 -25.13606 -24.54627
 -24.47563 -24.05596 -23.38892 -22.43878 -21.99452 -21.70632 -21.19689 -20.38583
 -19.74020 -19.37029 -18.48221 -17.79028 -17.53415 -17.42445 -17.03223 -16.92887
 -16.42308 -16.17938 -16.16175 -16.07466 -15.85438 -15.56119 -15.45752 -15.30894
 -15.22594 -15.10750 -14.86963 -14.83298 -14.70537 -14.50649 -14.34460 -14.30135
 -14.18057 -14.06437 -13.79557 -13.58773 -13.47598 -13.40881 -13.23244 -13.12094
 -13.04164 -12.97974 -12.93425 -12.79176 -12.33593 -12.29829 -12.28349 -12.08873
 -12.02172 -11.98968 -11.88655 -11.79500 -10.98724 -10.81777 -10.63141  -9.92259
  -9.80384  -9.14849  -0.95942  -0.36094  -0.10058   0.04733   0.51237   0.97126
   1.11470   1.91486   2.05390   2.25843   2.34874   2.55862   2.80024   2.87948
   3.12121   3.16101   3.27569   3.40632   3.45144   3.55764   3.62402   3.67351
   3.76923   3.85759   3.89757   3.94437   3.99282   4.09102   4.15686   4.20760
   4.25807   4.33042   4.44651   4.56904   4.61216   4.72996   4.79948   5.10147
   5.11922   5.12896   5.18805   5.25629   5.26295   5.31749   5.54323   5.63847
   5.73455   5.77309   5.77641   5.78561   5.79118   5.79886   5.81491   5.83444
   5.87513   5.90514   6.03905   6.05050   6.10085   6.16588   6.75142   6.75618
   6.85732   6.86271


              NET ATOMIC CHARGES AND DIPOLE CONTRIBUTIONS

  ATOM NO.   TYPE          CHARGE      No. of ELECS.   s-Pop       p-Pop       
    1          C           0.327925        3.6721     1.06684     2.60523
    2          C          -0.461332        4.4613     1.11096     3.35037
    3          C           0.470520        3.5295     1.10737     2.42211
    4          C          -0.502450        4.5025     1.11646     3.38599
    5          C           0.141344        3.8587     1.05217     2.80648
    6          C          -0.478199        4.4782     1.11798     3.36021
    7          C           0.444815        3.5552     1.10767     2.44752
    8          C          -0.454865        4.4549     1.11011     3.34475
    9          C           0.326573        3.6734     1.06665     2.60678
   10          C          -0.545901        4.5459     1.12385     3.42205
   11          C           0.672003        3.3280     1.09026     2.23774
   12          O          -0.628505        6.6285     1.85211     4.77639
   13          O          -0.364475        6.3645     1.83613     4.52834
   14          C           0.673970        3.3260     1.09274     2.23329
   15          O          -0.645071        6.6451     1.85154     4.79353
   16          C          -0.537802        4.5378     1.12244     3.41536
   17          H           0.211975        0.7880     0.78802
   18          H           0.217533        0.7825     0.78247
   19          H           0.141532        0.8585     0.85847
   20          H           0.210773        0.7892     0.78923
   21          H           0.213239        0.7868     0.78676
   22          H           0.206844        0.7932     0.79316
   23          H           0.214380        0.7856     0.78562
   24          H           0.216632        0.7834     0.78337
   25          H           0.210908        0.7891     0.78909
   26          C          -0.313098        4.3131     1.10230     3.21080
   27          C           0.439674        3.5603     1.07600     2.48432
   28          C          -0.539822        4.5398     1.11024     3.42958
   29          C           0.434872        3.5651     1.07461     2.49052
   30          H           0.211783        0.7882     0.78822
   31          C          -0.431686        4.4317     1.10460     3.32708
   32          C           0.062007        3.9380     1.10370     2.83429
   33          H           0.195330        0.8047     0.80467
   34          H           0.150779        0.8492     0.84922
   35          O          -0.554283        6.5543     1.81636     4.73793
   36          H           0.382823        0.6172     0.61718
   37          O          -0.517971        6.5180     1.80629     4.71168
   38          H           0.374153        0.6258     0.62585
   39          C          -0.556182        4.5562     1.09589     3.46030
   40          H           0.172586        0.8274     0.82741
   41          H           0.174163        0.8258     0.82584
   42          H           0.170562        0.8294     0.82944
   43          C          -0.558996        4.5590     1.09638     3.46261
   44          H           0.172473        0.8275     0.82753
   45          H           0.165886        0.8341     0.83411
   46          H           0.173056        0.8269     0.82694
   47          C          -0.556990        4.5570     1.09633     3.46066
   48          H           0.172697        0.8273     0.82730
   49          H           0.173736        0.8263     0.82626
   50          H           0.160419        0.8396     0.83958
   51          C          -0.555688        4.5557     1.09592     3.45977
   52          H           0.170109        0.8299     0.82989
   53          H           0.173330        0.8267     0.82667
   54          H           0.171913        0.8281     0.82809
 DIPOLE           X         Y         Z       TOTAL
 POINT-CHG.    11.377     9.262     1.889    14.792
 HYBRID        -0.630    -0.068     0.148     0.651
 SUM           10.747     9.194     2.037    14.289


          CARTESIAN COORDINATES 

    NO.       ATOM               X         Y         Z

     1         C                 -0.3956    0.1268    0.1812
     2         C                  0.9512   -0.5004    0.6501
     3         C                  0.8913   -1.9787    0.6103
     4         C                 -0.2272   -2.7443    0.6229
     5         C                 -0.1609   -4.2457    0.4619
     6         C                  1.2318   -4.7335    0.7799
     7         C                  2.2958   -3.8981    0.7804
     8         C                  3.7147   -4.2636    0.9892
     9         C                  3.9531   -5.7708    0.6743
    10         C                  2.8464   -6.6114    1.3579
    11         C                  1.4376   -6.1592    1.0796
    12         O                  0.5072   -6.9530    1.1509
    13         O                  2.1722   -2.5205    0.5880
    14         C                 -1.5297   -2.0983    0.7865
    15         O                 -2.5740   -2.7492    0.8893
    16         C                 -1.5674   -0.6012    0.8891
    17         H                  1.7949   -0.1080    0.0374
    18         H                  1.1954   -0.1624    1.6874
    19         H                 -0.8770   -4.7196    1.1945
    20         H                  4.3958   -3.6274    0.3791
    21         H                  4.0094   -4.0378    2.0428
    22         H                  2.9654   -7.6817    1.0812
    23         H                  2.9969   -6.6038    2.4639
    24         H                 -1.5843   -0.3271    1.9716
    25         H                 -2.5368   -0.2126    0.5048
    26         C                 -0.5748   -4.6429   -0.9412
    27         C                 -1.8982   -5.0658   -1.2021
    28         C                 -2.3067   -5.5227   -2.4625
    29         C                 -1.3534   -5.5122   -3.4865
    30         H                 -3.3264   -5.8602   -2.6271
    31         C                 -0.0393   -5.0583   -3.2858
    32         C                  0.3284   -4.6284   -2.0109
    33         H                  0.6680   -5.0484   -4.1113
    34         H                  1.3509   -4.2757   -1.8451
    35         O                 -2.8700   -5.0703   -0.2432
    36         H                 -2.6204   -4.4674    0.5624
    37         O                 -1.6453   -5.9341   -4.7543
    38         H                 -2.5927   -6.2605   -4.8435
    39         C                 -0.4121    1.6094    0.5711
    40         H                  0.4115    2.1600    0.0993
    41         H                 -1.3432    2.0976    0.2561
    42         H                 -0.3214    1.7574    1.6540
    43         C                 -0.5337   -0.0184   -1.3399
    44         H                  0.2772    0.4963   -1.8702
    45         H                 -0.5155   -1.0657   -1.6609
    46         H                 -1.4744    0.4154   -1.7014
    47         C                  3.9207   -5.9968   -0.8432
    48         H                  4.6888   -5.4046   -1.3564
    49         H                  4.1104   -7.0477   -1.0961
    50         H                  2.9551   -5.7279   -1.2839
    51         C                  5.3204   -6.1807    1.2349
    52         H                  5.3869   -6.0344    2.3198
    53         H                  5.5339   -7.2393    1.0400
    54         H                  6.1335   -5.6019    0.7795


          ATOMIC ORBITAL ELECTRON POPULATIONS

   1.06684   0.82965   0.88802   0.88756   1.11096   1.14468   0.99001   1.21568
   1.10737   0.77542   0.89483   0.75186   1.11646   1.03349   1.05840   1.29410
   1.05217   0.95090   0.89157   0.96401   1.11798   1.03914   1.05569   1.26539
   1.10767   0.93236   0.74038   0.77478   1.11011   1.01653   1.11522   1.21299
   1.06665   0.88248   0.83376   0.89054   1.12385   1.05515   1.17469   1.19221
   1.09026   0.83069   0.81596   0.59109   1.85211   1.57500   1.64483   1.55657
   1.83613   1.40214   1.34187   1.78433   1.09274   0.80425   0.85675   0.57229
   1.85154   1.48769   1.73625   1.56960   1.12244   1.16619   1.05006   1.19912
   0.78802   0.78247   0.85847   0.78923   0.78676   0.79316   0.78562   0.78337
   0.78909   1.10230   1.00179   1.18817   1.02084   1.07600   0.83208   0.83438
   0.81787   1.11024   1.13440   1.27251   1.02268   1.07461   0.90890   0.82159
   0.76002   0.78822   1.10460   1.05095   1.19537   1.08076   1.10370   1.03356
   0.87417   0.92656   0.80467   0.84922   1.81636   1.55371   1.73450   1.44972
   0.61718   1.80629   1.49718   1.80038   1.41412   0.62585   1.09589   1.20202
   1.06980   1.18847   0.82741   0.82584   0.82944   1.09638   1.20145   1.19296
   1.06820   0.82753   0.83411   0.82694   1.09633   1.19128   1.19973   1.06965
   0.82730   0.82626   0.83958   1.09592   1.08992   1.19154   1.17831   0.82989
   0.82667   0.82809

           MULLIKEN POPULATION ANALYSIS



        MULLIKEN POPULATIONS AND CHARGES

      NO.  ATOM   POPULATION      CHARGE
        1    C     3.636950      0.363050
        2    C     4.581153     -0.581153
        3    C     3.504677      0.495323
        4    C     4.546151     -0.546151
        5    C     3.852075      0.147925
        6    C     4.520407     -0.520407
        7    C     3.532434      0.467566
        8    C     4.573315     -0.573315
        9    C     3.638400      0.361600
       10    C     4.672020     -0.672020
       11    C     3.280453      0.719547
       12    O     6.654432     -0.654432
       13    O     6.403873     -0.403873
       14    C     3.280533      0.719467
       15    O     6.674615     -0.674615
       16    C     4.663810     -0.663810
       17    H     0.733034      0.266966
       18    H     0.728238      0.271762
       19    H     0.818822      0.181178
       20    H     0.734336      0.265664
       21    H     0.733305      0.266695
       22    H     0.738808      0.261192
       23    H     0.732857      0.267143
       24    H     0.730349      0.269651
       25    H     0.734040      0.265960
       26    C     4.338451     -0.338451
       27    C     3.531745      0.468255
       28    C     4.618085     -0.618085
       29    C     3.541052      0.458948
       30    H     0.724566      0.275434
       31    C     4.500317     -0.500317
       32    C     3.962568      0.037432
       33    H     0.745054      0.254946
       34    H     0.802805      0.197195
       35    O     6.600992     -0.600992
       36    H     0.583431      0.416569
       37    O     6.567537     -0.567537
       38    H     0.593343      0.406657
       39    C     4.702623     -0.702623
       40    H     0.779880      0.220120
       41    H     0.777992      0.222008
       42    H     0.782112      0.217888
       43    C     4.703689     -0.703689
       44    H     0.780031      0.219969
       45    H     0.787567      0.212433
       46    H     0.779366      0.220634
       47    C     4.700538     -0.700538
       48    H     0.779713      0.220287
       49    H     0.778545      0.221455
       50    H     0.794669      0.205331
       51    C     4.701886     -0.701886
       52    H     0.782681      0.217319
       53    H     0.779019      0.220981
       54    H     0.780658      0.219342



 TOTAL CPU TIME:            35.46 SECONDS

 == MOPAC DONE ==
 *******************************************************************************
 ** Site#:  958            For non-commercial use only         Version 9.015L **
 *******************************************************************************
 ** Cite this work as: MOPAC2009, James J. P. Stewart, Stewart Computational  **
 ** Chemistry, Version 9.015L web: HTTP://OpenMOPAC.net                       **
 *******************************************************************************
 **                                                                           **
 **                                MOPAC2009                                  **
 **                                                                           **
 *******************************************************************************

                            PM6 CALCULATION RESULTS


 *******************************************************************************
 *  CALCULATION DONE:                                Tue Sep  6 16:27:27 2011  *
 *  PM6      - The PM6 Hamiltonian to be used
 *  GEO-OK   - OVERRIDE INTERATOMIC DISTANCE CHECK
 *
 *
 *
 *                 CHARGE ON SYSTEM =     0
 *
 *
 *
 *  EPS= 78.400
 *  RSOLV=  1.300
 *  OLDGEO   - PREVIOUS GEOMETRY TO BE USED
 *  T=       - A TIME OF 172800.0 SECONDS REQUESTED
 *  DUMP=N   - RESTART FILE WRITTEN EVERY  4320.000 SECONDS
 *  RELSCF   - DEFAULT SCF CRITERION MULTIPLIED BY   0.100    
 *             (DEFAULT SCFCRT= 0.00010)
 *  THERMO   - THERMODYNAMIC QUANTITIES TO BE CALCULATED
 *******************************************************************************
 PM6 DUMP=4320 RELSCF=0.1 THERMO EPS=78.40 RSOLV=1.30 +
 OLDGEO GEO-OK CHARGE=0
 SJ000002349-1_T001S001I001C05: Free energy calculation

   ATOM   CHEMICAL          X               Y              Z
  NUMBER   SYMBOL      (ANGSTROMS)     (ANGSTROMS)    (ANGSTROMS)
 
     1       C         -0.3955871  *    0.126842  *    0.181218  *
     2       C          0.9511633  *   -0.500389  *    0.650144  *
     3       C          0.8913194  *   -1.978685  *    0.610324  *
     4       C         -0.2271666  *   -2.744339  *    0.622926  *
     5       C         -0.1608666  *   -4.245732  *    0.461886  *
     6       C          1.2317830  *   -4.733513  *    0.779926  *
     7       C          2.2957526  *   -3.898104  *    0.780418  *
     8       C          3.7146580  *   -4.263638  *    0.989163  *
     9       C          3.9531089  *   -5.770759  *    0.674329  *
    10       C          2.8464448  *   -6.611425  *    1.357897  *
    11       C          1.4376458  *   -6.159203  *    1.079570  *
    12       O          0.5071735  *   -6.953046  *    1.150932  *
    13       O          2.1721760  *   -2.520501  *    0.588014  *
    14       C         -1.5296570  *   -2.098256  *    0.786464  *
    15       O         -2.5739913  *   -2.749223  *    0.889327  *
    16       C         -1.5674110  *   -0.601162  *    0.889102  *
    17       H          1.7949068  *   -0.108000  *    0.037391  *
    18       H          1.1954181  *   -0.162371  *    1.687390  *
    19       H         -0.8770138  *   -4.719585  *    1.194515  *
    20       H          4.3957976  *   -3.627363  *    0.379055  *
    21       H          4.0094013  *   -4.037782  *    2.042830  *
    22       H          2.9653905  *   -7.681663  *    1.081212  *
    23       H          2.9968651  *   -6.603775  *    2.463894  *
    24       H         -1.5843469  *   -0.327131  *    1.971641  *
    25       H         -2.5367509  *   -0.212578  *    0.504791  *
    26       C         -0.5747821  *   -4.642948  *   -0.941230  *
    27       C         -1.8982257  *   -5.065817  *   -1.202122  *
    28       C         -2.3066655  *   -5.522744  *   -2.462504  *
    29       C         -1.3533986  *   -5.512219  *   -3.486549  *
    30       H         -3.3264304  *   -5.860231  *   -2.627093  *
    31       C         -0.0393398  *   -5.058290  *   -3.285802  *
    32       C          0.3283819  *   -4.628386  *   -2.010902  *
    33       H          0.6679967  *   -5.048430  *   -4.111325  *
    34       H          1.3508822  *   -4.275711  *   -1.845071  *
    35       O         -2.8700038  *   -5.070260  *   -0.243170  *
    36       H         -2.6204419  *   -4.467382  *    0.562420  *
    37       O         -1.6453467  *   -5.934127  *   -4.754305  *
    38       H         -2.5927166  *   -6.260510  *   -4.843481  *
    39       C         -0.4120650  *    1.609372  *    0.571064  *
    40       H          0.4114819  *    2.160042  *    0.099313  *
    41       H         -1.3431807  *    2.097648  *    0.256134  *
    42       H         -0.3213783  *    1.757360  *    1.653985  *
    43       C         -0.5336781  *   -0.018421  *   -1.339868  *
    44       H          0.2771988  *    0.496309  *   -1.870194  *
    45       H         -0.5155423  *   -1.065743  *   -1.660910  *
    46       H         -1.4743935  *    0.415384  *   -1.701379  *
    47       C          3.9207442  *   -5.996782  *   -0.843170  *
    48       H          4.6887545  *   -5.404605  *   -1.356394  *
    49       H          4.1103642  *   -7.047725  *   -1.096107  *
    50       H          2.9551431  *   -5.727878  *   -1.283900  *
    51       C          5.3204169  *   -6.180694  *    1.234941  *
    52       H          5.3869231  *   -6.034417  *    2.319813  *
    53       H          5.5338929  *   -7.239343  *    1.040022  *
    54       H          6.1335350  *   -5.601854  *    0.779523  *
 


          CARTESIAN COORDINATES 

    NO.       ATOM         X         Y         Z

     1         C       -0.3956    0.1268    0.1812
     2         C        0.9512   -0.5004    0.6501
     3         C        0.8913   -1.9787    0.6103
     4         C       -0.2272   -2.7443    0.6229
     5         C       -0.1609   -4.2457    0.4619
     6         C        1.2318   -4.7335    0.7799
     7         C        2.2958   -3.8981    0.7804
     8         C        3.7147   -4.2636    0.9892
     9         C        3.9531   -5.7708    0.6743
    10         C        2.8464   -6.6114    1.3579
    11         C        1.4376   -6.1592    1.0796
    12         O        0.5072   -6.9530    1.1509
    13         O        2.1722   -2.5205    0.5880
    14         C       -1.5297   -2.0983    0.7865
    15         O       -2.5740   -2.7492    0.8893
    16         C       -1.5674   -0.6012    0.8891
    17         H        1.7949   -0.1080    0.0374
    18         H        1.1954   -0.1624    1.6874
    19         H       -0.8770   -4.7196    1.1945
    20         H        4.3958   -3.6274    0.3791
    21         H        4.0094   -4.0378    2.0428
    22         H        2.9654   -7.6817    1.0812
    23         H        2.9969   -6.6038    2.4639
    24         H       -1.5843   -0.3271    1.9716
    25         H       -2.5368   -0.2126    0.5048
    26         C       -0.5748   -4.6429   -0.9412
    27         C       -1.8982   -5.0658   -1.2021
    28         C       -2.3067   -5.5227   -2.4625
    29         C       -1.3534   -5.5122   -3.4865
    30         H       -3.3264   -5.8602   -2.6271
    31         C       -0.0393   -5.0583   -3.2858
    32         C        0.3284   -4.6284   -2.0109
    33         H        0.6680   -5.0484   -4.1113
    34         H        1.3509   -4.2757   -1.8451
    35         O       -2.8700   -5.0703   -0.2432
    36         H       -2.6204   -4.4674    0.5624
    37         O       -1.6453   -5.9341   -4.7543
    38         H       -2.5927   -6.2605   -4.8435
    39         C       -0.4121    1.6094    0.5711
    40         H        0.4115    2.1600    0.0993
    41         H       -1.3432    2.0976    0.2561
    42         H       -0.3214    1.7574    1.6540
    43         C       -0.5337   -0.0184   -1.3399
    44         H        0.2772    0.4963   -1.8702
    45         H       -0.5155   -1.0657   -1.6609
    46         H       -1.4744    0.4154   -1.7014
    47         C        3.9207   -5.9968   -0.8432
    48         H        4.6888   -5.4046   -1.3564
    49         H        4.1104   -7.0477   -1.0961
    50         H        2.9551   -5.7279   -1.2839
    51         C        5.3204   -6.1807    1.2349
    52         H        5.3869   -6.0344    2.3198
    53         H        5.5339   -7.2393    1.0400
    54         H        6.1335   -5.6019    0.7795

 General Reference for PM6:
 "Optimization of Parameters for Semiempirical Methods V: Modification of NDDO Approximations
 and Application to 70 Elements", J. J. P. Stewart, J. Mol. Mod., 13, 1173-1213 (2007)
 URL: http://www.springerlink.com/content/ar33482301010477/fulltext.pdf

           Empirical Formula: C23 H26 O5  =    54 atoms



      MOLECULAR POINT GROUP   :   C1  


      RHF CALCULATION, NO. OF DOUBLY OCCUPIED LEVELS =   74

  SCF CRITERION =    0.1000E-04


          HEAT OF FORMATION =    -231.767274 KCALS/MOLE


          INTERNAL COORDINATE DERIVATIVES

   NUMBER  ATOM       BOND         ANGLE      DIHEDRAL

     1       C
     2       C      0.004958
     3       C     -0.012101     0.017953
     4       C     -0.022994     0.075535    -0.002339
     5       C     -0.019210    -0.095824    -0.001365
     6       C      0.061454     0.007352     0.077182
     7       C     -0.042320    -0.029204    -0.007440
     8       C     -0.012680     0.059441    -0.004405
     9       C      0.078232    -0.008450    -0.016970
    10       C     -0.047193     0.016445     0.012200
    11       C     -0.016639     0.007055    -0.027201
    12       O     -0.032942    -0.003322     0.072558
    13       O     -0.050608     0.029584    -0.125551
    14       C      0.128812    -0.027729     0.064088
    15       O     -0.055128     0.004529     0.012837
    16       C     -0.039246     0.009441    -0.119079
    17       H      0.102031     0.086767     0.103765
    18       H     -0.056277     0.009450     0.033794
    19       H     -0.010480     0.032516     0.013631
    20       H      0.053426    -0.034049    -0.003259
    21       H     -0.017091     0.021296     0.027579
    22       H     -0.011391     0.031938    -0.021549
    23       H      0.069464    -0.019814    -0.031200
    24       H     -0.020562    -0.011741    -0.014434
    25       H      0.011709    -0.010301     0.011666
    26       C     -0.021826    -0.030981    -0.008596
    27       C      0.027252     0.013857     0.006495
    28       C      0.093652    -0.040484     0.011398
    29       C      0.027716    -0.004439    -0.010265
    30       H     -0.042419    -0.056490    -0.063312
    31       C     -0.068416     0.006660     0.069681
    32       C      0.064906    -0.003691    -0.016571
    33       H      0.025698     0.066254     0.025730
    34       H     -0.075383    -0.035546    -0.059274
    35       O     -0.037036     0.003613     0.005454
    36       H      0.024563    -0.000216     0.007385
    37       O     -0.101027    -0.005285     0.091523
    38       H     -0.015008     0.008888    -0.025323
    39       C     -0.248646    -0.062562     0.058911
    40       H      0.234932     0.003116    -0.051227
    41       H     -0.021511    -0.027893    -0.025222
    42       H      0.006818     0.005846     0.024219
    43       C      0.013020     0.025178    -0.011630
    44       H      0.020666    -0.019742    -0.004682
    45       H      0.035546    -0.025133    -0.009247
    46       H     -0.013609     0.015413     0.022326
    47       C     -0.012018    -0.027847    -0.009027
    48       H      0.007235     0.011187    -0.015941
    49       H      0.004462    -0.018404    -0.033273
    50       H     -0.006243     0.014538     0.013638
    51       C     -0.019605    -0.016875    -0.012532
    52       H      0.011278     0.001929    -0.003216
    53       H      0.010220     0.034304    -0.026045
    54       H      0.027771     0.004412    -0.006399


          GRADIENT NORM =   0.61265


          TIME FOR SCF CALCULATION =    0.24

          TIME FOR DERIVATIVES     =    0.08

          MOLECULAR WEIGHT =  382.46



          ROTATIONAL CONSTANTS IN CM(-1)

          A =    0.00676817   B =    0.00545500   C =    0.00380893



           PRINCIPAL MOMENTS OF INERTIA IN UNITS OF 10**(-40)*GRAM-CM**2

          A =     4135.9472   B =     5131.5771   C =     7349.2519


          ORIENTATION OF MOLECULE IN FORCE CALCULATION

    NO.       ATOM         X         Y         Z

     1          C      -2.1618   -3.3998   -0.6082
     2          C      -0.6039   -3.3998   -0.6082
     3          C      -0.0725   -2.0185   -0.6082
     4          C      -0.7273   -0.8991   -1.0024
     5          C      -0.1140    0.4735   -0.8463
     6          C       1.3820    0.3504   -0.6871
     7          C       1.9656   -0.8142   -0.3226
     8          C       3.4022   -1.0433   -0.0502
     9          C       4.1204    0.2921    0.3083
    10          C       3.7079    1.3787   -0.7154
    11          C       2.2242    1.5346   -0.9178
    12          O       1.7609    2.6007   -1.3050
    13          O       1.2462   -2.0009   -0.1661
    14          C      -2.0641   -1.0244   -1.5836
    15          O      -2.6739   -0.0509   -2.0368
    16          C      -2.6686   -2.3954   -1.6751
    17          H      -0.2169   -3.9875    0.2557
    18          H      -0.2166   -3.9511   -1.5003
    19          H      -0.3218    1.0705   -1.7815
    20          H       3.5512   -1.7935    0.7598
    21          H       3.8832   -1.5132   -0.9423
    22          H       4.1583    2.3536   -0.4276
    23          H       4.1678    1.1552   -1.7076
    24          H      -2.4678   -2.7964   -2.6979
    25          H      -3.7787   -2.3311   -1.6318
    26          C      -0.7342    1.1956    0.3334
    27          C      -1.7865    2.1179    0.1326
    28          C      -2.3350    2.8720    1.1789
    29          C      -1.8234    2.6521    2.4624
    30          H      -3.1303    3.5880    0.9897
    31          C      -0.8098    1.7136    2.7171
    32          C      -0.2813    0.9975    1.6432
    33          H      -0.4508    1.5581    3.7314
    34          H       0.5106    0.2663    1.8324
    35          O      -2.3362    2.3486   -1.0957
    36          H      -2.1207    1.5865   -1.7646
    37          O      -2.2876    3.3314    3.5549
    38          H      -3.0020    3.9992    3.3189
    39          C      -2.6556   -4.8070   -0.9635
    40          H      -2.3074   -5.5524   -0.2375
    41          H      -3.7519   -4.8583   -0.9716
    42          H      -2.3108   -5.1332   -1.9522
    43          C      -2.6806   -2.9950    0.7778
    44          H      -2.3464   -3.6942    1.5544
    45          H      -2.3398   -1.9967    1.0740
    46          H      -3.7772   -2.9861    0.8097
    47          C       3.7266    0.7306    1.7252
    48          H       3.9976   -0.0259    2.4723
    49          H       4.2375    1.6578    2.0144
    50          H       2.6510    0.9112    1.8215
    51          C       5.6361    0.0722    0.2313
    52          H       5.9613   -0.2436   -0.7674
    53          H       6.1882    0.9891    0.4737
    54          H       5.9689   -0.6974    0.9388


    FIRST DERIVATIVES WILL BE USED IN THE CALCULATION OF SECOND DERIVATIVES

          ESTIMATED TIME TO COMPLETE CALCULATION =      104.96 SECONDS

    FOR POINT-GROUP C1   THERE ARE   1 UNIQUE SYMMETRY FUNCTIONS.

 STEP:   1 TIME =     0.24 SECS, INTEGRAL =      0.24 TIME LEFT: 172799.44
 STEP:   2 TIME =     0.23 SECS, INTEGRAL =      0.47 TIME LEFT: 172799.21
 STEP:   3 TIME =     0.23 SECS, INTEGRAL =      0.69 TIME LEFT: 172798.98
 STEP:   4 TIME =     0.23 SECS, INTEGRAL =      0.92 TIME LEFT: 172798.76
 STEP:   5 TIME =     0.24 SECS, INTEGRAL =      1.16 TIME LEFT: 172798.51
 STEP:   6 TIME =     0.23 SECS, INTEGRAL =      1.39 TIME LEFT: 172798.29
 STEP:   7 TIME =     0.24 SECS, INTEGRAL =      1.63 TIME LEFT: 172798.05
 STEP:   8 TIME =     0.24 SECS, INTEGRAL =      1.87 TIME LEFT: 172797.81
 STEP:   9 TIME =     0.23 SECS, INTEGRAL =      2.10 TIME LEFT: 172797.58
 STEP:  10 TIME =     0.23 SECS, INTEGRAL =      2.33 TIME LEFT: 172797.34
 STEP:  11 TIME =     0.23 SECS, INTEGRAL =      2.56 TIME LEFT: 172797.11
 STEP:  12 TIME =     0.24 SECS, INTEGRAL =      2.80 TIME LEFT: 172796.88
 STEP:  13 TIME =     0.24 SECS, INTEGRAL =      3.04 TIME LEFT: 172796.64
 STEP:  14 TIME =     0.24 SECS, INTEGRAL =      3.28 TIME LEFT: 172796.40
 STEP:  15 TIME =     0.23 SECS, INTEGRAL =      3.50 TIME LEFT: 172796.17
 STEP:  16 TIME =     0.26 SECS, INTEGRAL =      3.76 TIME LEFT: 172795.92
 STEP:  17 TIME =     0.24 SECS, INTEGRAL =      4.00 TIME LEFT: 172795.68
 STEP:  18 TIME =     0.24 SECS, INTEGRAL =      4.24 TIME LEFT: 172795.44
 STEP:  19 TIME =     0.23 SECS, INTEGRAL =      4.48 TIME LEFT: 172795.20
 STEP:  20 TIME =     0.24 SECS, INTEGRAL =      4.71 TIME LEFT: 172794.96
 STEP:  21 TIME =     0.23 SECS, INTEGRAL =      4.95 TIME LEFT: 172794.73
 STEP:  22 TIME =     0.24 SECS, INTEGRAL =      5.18 TIME LEFT: 172794.49
 STEP:  23 TIME =     0.23 SECS, INTEGRAL =      5.41 TIME LEFT: 172794.27
 STEP:  24 TIME =     0.23 SECS, INTEGRAL =      5.64 TIME LEFT: 172794.04
 STEP:  25 TIME =     0.23 SECS, INTEGRAL =      5.87 TIME LEFT: 172793.81
 STEP:  26 TIME =     0.23 SECS, INTEGRAL =      6.10 TIME LEFT: 172793.58
 STEP:  27 TIME =     0.23 SECS, INTEGRAL =      6.33 TIME LEFT: 172793.35
 STEP:  28 TIME =     0.23 SECS, INTEGRAL =      6.56 TIME LEFT: 172793.12
 STEP:  29 TIME =     0.23 SECS, INTEGRAL =      6.78 TIME LEFT: 172792.89
 STEP:  30 TIME =     0.22 SECS, INTEGRAL =      7.01 TIME LEFT: 172792.67
 STEP:  31 TIME =     0.23 SECS, INTEGRAL =      7.24 TIME LEFT: 172792.43
 STEP:  32 TIME =     0.24 SECS, INTEGRAL =      7.49 TIME LEFT: 172792.19
 STEP:  33 TIME =     0.23 SECS, INTEGRAL =      7.72 TIME LEFT: 172791.96
 STEP:  34 TIME =     0.23 SECS, INTEGRAL =      7.95 TIME LEFT: 172791.73
 STEP:  35 TIME =     0.22 SECS, INTEGRAL =      8.17 TIME LEFT: 172791.50
 STEP:  36 TIME =     0.23 SECS, INTEGRAL =      8.40 TIME LEFT: 172791.27
 STEP:  37 TIME =     0.23 SECS, INTEGRAL =      8.64 TIME LEFT: 172791.04
 STEP:  38 TIME =     0.23 SECS, INTEGRAL =      8.87 TIME LEFT: 172790.81
 STEP:  39 TIME =     0.23 SECS, INTEGRAL =      9.10 TIME LEFT: 172790.58
 STEP:  40 TIME =     0.24 SECS, INTEGRAL =      9.33 TIME LEFT: 172790.34
 STEP:  41 TIME =     0.23 SECS, INTEGRAL =      9.56 TIME LEFT: 172790.11
 STEP:  42 TIME =     0.24 SECS, INTEGRAL =      9.81 TIME LEFT: 172789.87
 STEP:  43 TIME =     0.23 SECS, INTEGRAL =     10.03 TIME LEFT: 172789.64
 STEP:  44 TIME =     0.23 SECS, INTEGRAL =     10.26 TIME LEFT: 172789.42
 STEP:  45 TIME =     0.23 SECS, INTEGRAL =     10.48 TIME LEFT: 172789.19
 STEP:  46 TIME =     0.23 SECS, INTEGRAL =     10.71 TIME LEFT: 172788.96
 STEP:  47 TIME =     0.23 SECS, INTEGRAL =     10.94 TIME LEFT: 172788.74
 STEP:  48 TIME =     0.23 SECS, INTEGRAL =     11.17 TIME LEFT: 172788.51
 STEP:  49 TIME =     0.22 SECS, INTEGRAL =     11.39 TIME LEFT: 172788.29
 STEP:  50 TIME =     0.22 SECS, INTEGRAL =     11.61 TIME LEFT: 172788.07
 STEP:  51 TIME =     0.22 SECS, INTEGRAL =     11.82 TIME LEFT: 172787.85
 STEP:  52 TIME =     0.22 SECS, INTEGRAL =     12.04 TIME LEFT: 172787.64
 STEP:  53 TIME =     0.22 SECS, INTEGRAL =     12.26 TIME LEFT: 172787.42
 STEP:  54 TIME =     0.22 SECS, INTEGRAL =     12.48 TIME LEFT: 172787.20
 STEP:  55 TIME =     0.22 SECS, INTEGRAL =     12.70 TIME LEFT: 172786.98
 STEP:  56 TIME =     0.22 SECS, INTEGRAL =     12.92 TIME LEFT: 172786.76
 STEP:  57 TIME =     0.22 SECS, INTEGRAL =     13.13 TIME LEFT: 172786.54
 STEP:  58 TIME =     0.22 SECS, INTEGRAL =     13.35 TIME LEFT: 172786.32
 STEP:  59 TIME =     0.22 SECS, INTEGRAL =     13.57 TIME LEFT: 172786.10
 STEP:  60 TIME =     0.22 SECS, INTEGRAL =     13.79 TIME LEFT: 172785.89
 STEP:  61 TIME =     0.22 SECS, INTEGRAL =     14.01 TIME LEFT: 172785.67
 STEP:  62 TIME =     0.22 SECS, INTEGRAL =     14.22 TIME LEFT: 172785.45
 STEP:  63 TIME =     0.22 SECS, INTEGRAL =     14.44 TIME LEFT: 172785.24
 STEP:  64 TIME =     0.22 SECS, INTEGRAL =     14.65 TIME LEFT: 172785.02
 STEP:  65 TIME =     0.22 SECS, INTEGRAL =     14.87 TIME LEFT: 172784.81
 STEP:  66 TIME =     0.22 SECS, INTEGRAL =     15.09 TIME LEFT: 172784.59
 STEP:  67 TIME =     0.22 SECS, INTEGRAL =     15.30 TIME LEFT: 172784.37
 STEP:  68 TIME =     0.22 SECS, INTEGRAL =     15.52 TIME LEFT: 172784.15
 STEP:  69 TIME =     0.22 SECS, INTEGRAL =     15.74 TIME LEFT: 172783.94
 STEP:  70 TIME =     0.22 SECS, INTEGRAL =     15.96 TIME LEFT: 172783.72
 STEP:  71 TIME =     0.22 SECS, INTEGRAL =     16.17 TIME LEFT: 172783.50
 STEP:  72 TIME =     0.22 SECS, INTEGRAL =     16.39 TIME LEFT: 172783.29
 STEP:  73 TIME =     0.22 SECS, INTEGRAL =     16.61 TIME LEFT: 172783.07
 STEP:  74 TIME =     0.22 SECS, INTEGRAL =     16.83 TIME LEFT: 172782.85
 STEP:  75 TIME =     0.23 SECS, INTEGRAL =     17.05 TIME LEFT: 172782.62
 STEP:  76 TIME =     0.24 SECS, INTEGRAL =     17.29 TIME LEFT: 172782.38
 STEP:  77 TIME =     0.24 SECS, INTEGRAL =     17.53 TIME LEFT: 172782.14
 STEP:  78 TIME =     0.24 SECS, INTEGRAL =     17.78 TIME LEFT: 172781.90
 STEP:  79 TIME =     0.24 SECS, INTEGRAL =     18.02 TIME LEFT: 172781.66
 STEP:  80 TIME =     0.24 SECS, INTEGRAL =     18.25 TIME LEFT: 172781.42
 STEP:  81 TIME =     0.24 SECS, INTEGRAL =     18.50 TIME LEFT: 172781.18
 STEP:  82 TIME =     0.23 SECS, INTEGRAL =     18.72 TIME LEFT: 172780.95
 STEP:  83 TIME =     0.23 SECS, INTEGRAL =     18.95 TIME LEFT: 172780.73
 STEP:  84 TIME =     0.25 SECS, INTEGRAL =     19.20 TIME LEFT: 172780.47
 STEP:  85 TIME =     0.24 SECS, INTEGRAL =     19.44 TIME LEFT: 172780.24
 STEP:  86 TIME =     0.23 SECS, INTEGRAL =     19.67 TIME LEFT: 172780.01
 STEP:  87 TIME =     0.24 SECS, INTEGRAL =     19.90 TIME LEFT: 172779.77
 STEP:  88 TIME =     0.23 SECS, INTEGRAL =     20.13 TIME LEFT: 172779.55
 STEP:  89 TIME =     0.22 SECS, INTEGRAL =     20.35 TIME LEFT: 172779.33
 STEP:  90 TIME =     0.21 SECS, INTEGRAL =     20.56 TIME LEFT: 172779.11
 STEP:  91 TIME =     0.24 SECS, INTEGRAL =     20.80 TIME LEFT: 172778.87
 STEP:  92 TIME =     0.24 SECS, INTEGRAL =     21.04 TIME LEFT: 172778.63
 STEP:  93 TIME =     0.23 SECS, INTEGRAL =     21.27 TIME LEFT: 172778.40
 STEP:  94 TIME =     0.22 SECS, INTEGRAL =     21.50 TIME LEFT: 172778.18
 STEP:  95 TIME =     0.23 SECS, INTEGRAL =     21.72 TIME LEFT: 172777.95
 STEP:  96 TIME =     0.25 SECS, INTEGRAL =     21.98 TIME LEFT: 172777.70
 STEP:  97 TIME =     0.22 SECS, INTEGRAL =     22.20 TIME LEFT: 172777.48
 STEP:  98 TIME =     0.22 SECS, INTEGRAL =     22.42 TIME LEFT: 172777.25
 STEP:  99 TIME =     0.21 SECS, INTEGRAL =     22.64 TIME LEFT: 172777.04
 STEP: 100 TIME =     0.22 SECS, INTEGRAL =     22.85 TIME LEFT: 172776.82
 STEP: 101 TIME =     0.22 SECS, INTEGRAL =     23.07 TIME LEFT: 172776.60
 STEP: 102 TIME =     0.22 SECS, INTEGRAL =     23.29 TIME LEFT: 172776.38
 STEP: 103 TIME =     0.24 SECS, INTEGRAL =     23.53 TIME LEFT: 172776.15
 STEP: 104 TIME =     0.23 SECS, INTEGRAL =     23.76 TIME LEFT: 172775.92
 STEP: 105 TIME =     0.23 SECS, INTEGRAL =     23.99 TIME LEFT: 172775.69
 STEP: 106 TIME =     0.23 SECS, INTEGRAL =     24.22 TIME LEFT: 172775.46
 STEP: 107 TIME =     0.23 SECS, INTEGRAL =     24.44 TIME LEFT: 172775.23
 STEP: 108 TIME =     0.22 SECS, INTEGRAL =     24.67 TIME LEFT: 172775.01
 STEP: 109 TIME =     0.22 SECS, INTEGRAL =     24.89 TIME LEFT: 172774.78
 STEP: 110 TIME =     0.23 SECS, INTEGRAL =     25.12 TIME LEFT: 172774.56
 STEP: 111 TIME =     0.23 SECS, INTEGRAL =     25.35 TIME LEFT: 172774.32
 STEP: 112 TIME =     0.22 SECS, INTEGRAL =     25.58 TIME LEFT: 172774.10
 STEP: 113 TIME =     0.22 SECS, INTEGRAL =     25.80 TIME LEFT: 172773.88
 STEP: 114 TIME =     0.22 SECS, INTEGRAL =     26.02 TIME LEFT: 172773.66
 STEP: 115 TIME =     0.23 SECS, INTEGRAL =     26.25 TIME LEFT: 172773.43
 STEP: 116 TIME =     0.22 SECS, INTEGRAL =     26.47 TIME LEFT: 172773.21
 STEP: 117 TIME =     0.22 SECS, INTEGRAL =     26.70 TIME LEFT: 172772.98
 STEP: 118 TIME =     0.22 SECS, INTEGRAL =     26.91 TIME LEFT: 172772.76
 STEP: 119 TIME =     0.22 SECS, INTEGRAL =     27.13 TIME LEFT: 172772.55
 STEP: 120 TIME =     0.21 SECS, INTEGRAL =     27.35 TIME LEFT: 172772.33
 STEP: 121 TIME =     0.21 SECS, INTEGRAL =     27.56 TIME LEFT: 172772.12
 STEP: 122 TIME =     0.22 SECS, INTEGRAL =     27.78 TIME LEFT: 172771.90
 STEP: 123 TIME =     0.22 SECS, INTEGRAL =     28.00 TIME LEFT: 172771.67
 STEP: 124 TIME =     0.23 SECS, INTEGRAL =     28.24 TIME LEFT: 172771.44
 STEP: 125 TIME =     0.25 SECS, INTEGRAL =     28.49 TIME LEFT: 172771.19
 STEP: 126 TIME =     0.22 SECS, INTEGRAL =     28.71 TIME LEFT: 172770.97
 STEP: 127 TIME =     0.22 SECS, INTEGRAL =     28.93 TIME LEFT: 172770.74
 STEP: 128 TIME =     0.23 SECS, INTEGRAL =     29.16 TIME LEFT: 172770.52
 STEP: 129 TIME =     0.22 SECS, INTEGRAL =     29.38 TIME LEFT: 172770.29
 STEP: 130 TIME =     0.22 SECS, INTEGRAL =     29.60 TIME LEFT: 172770.07
 STEP: 131 TIME =     0.21 SECS, INTEGRAL =     29.82 TIME LEFT: 172769.86
 STEP: 132 TIME =     0.21 SECS, INTEGRAL =     30.03 TIME LEFT: 172769.64
 STEP: 133 TIME =     0.21 SECS, INTEGRAL =     30.25 TIME LEFT: 172769.43
 STEP: 134 TIME =     0.21 SECS, INTEGRAL =     30.46 TIME LEFT: 172769.21
 STEP: 135 TIME =     0.21 SECS, INTEGRAL =     30.68 TIME LEFT: 172769.00
 STEP: 136 TIME =     0.21 SECS, INTEGRAL =     30.89 TIME LEFT: 172768.78
 STEP: 137 TIME =     0.22 SECS, INTEGRAL =     31.11 TIME LEFT: 172768.56
 STEP: 138 TIME =     0.22 SECS, INTEGRAL =     31.33 TIME LEFT: 172768.35
 STEP: 139 TIME =     0.22 SECS, INTEGRAL =     31.56 TIME LEFT: 172768.12
 STEP: 140 TIME =     0.22 SECS, INTEGRAL =     31.78 TIME LEFT: 172767.90
 STEP: 141 TIME =     0.22 SECS, INTEGRAL =     32.01 TIME LEFT: 172767.67
 STEP: 142 TIME =     0.22 SECS, INTEGRAL =     32.23 TIME LEFT: 172767.45
 STEP: 143 TIME =     0.22 SECS, INTEGRAL =     32.44 TIME LEFT: 172767.23
 STEP: 144 TIME =     0.21 SECS, INTEGRAL =     32.66 TIME LEFT: 172767.02
 STEP: 145 TIME =     0.21 SECS, INTEGRAL =     32.87 TIME LEFT: 172766.81
 STEP: 146 TIME =     0.22 SECS, INTEGRAL =     33.09 TIME LEFT: 172766.59
 STEP: 147 TIME =     0.22 SECS, INTEGRAL =     33.31 TIME LEFT: 172766.37
 STEP: 148 TIME =     0.22 SECS, INTEGRAL =     33.52 TIME LEFT: 172766.15
 STEP: 149 TIME =     0.22 SECS, INTEGRAL =     33.74 TIME LEFT: 172765.93
 STEP: 150 TIME =     0.22 SECS, INTEGRAL =     33.96 TIME LEFT: 172765.71
 STEP: 151 TIME =     0.22 SECS, INTEGRAL =     34.19 TIME LEFT: 172765.49
 STEP: 152 TIME =     0.22 SECS, INTEGRAL =     34.41 TIME LEFT: 172765.26
 STEP: 153 TIME =     0.22 SECS, INTEGRAL =     34.64 TIME LEFT: 172765.04
 STEP: 154 TIME =     0.22 SECS, INTEGRAL =     34.86 TIME LEFT: 172764.82
 STEP: 155 TIME =     0.21 SECS, INTEGRAL =     35.07 TIME LEFT: 172764.61
 STEP: 156 TIME =     0.21 SECS, INTEGRAL =     35.29 TIME LEFT: 172764.39
 STEP: 157 TIME =     0.21 SECS, INTEGRAL =     35.50 TIME LEFT: 172764.18
 STEP: 158 TIME =     0.21 SECS, INTEGRAL =     35.72 TIME LEFT: 172763.96
 STEP: 159 TIME =     0.21 SECS, INTEGRAL =     35.93 TIME LEFT: 172763.75
 STEP: 160 TIME =     0.21 SECS, INTEGRAL =     36.15 TIME LEFT: 172763.53
 STEP: 161 TIME =     0.21 SECS, INTEGRAL =     36.36 TIME LEFT: 172763.32
 STEP: 162 TIME =     0.21 SECS, INTEGRAL =     36.57 TIME LEFT: 172763.10

(To convert to Hartree/Bohr^2, multiply by (10^(-21) x N x a0^2)/(4.184 x 627.51) = 0.0642)


           FORCE MATRIX IN MILLIDYNES/ANGSTROM


                  C  1       C  2       C  3       C  4       C  5       C  6
 ------------------------------------------------------------------------------
     C    1  13.213913
     C    2   2.703133  11.903351
     C    3   0.825013   3.832296  15.797540
     C    4   0.118427   0.865004   7.519860  15.949951
     C    5   0.020929   0.110753   0.946976   3.505548  12.900807
     C    6   0.017289   0.029683   0.389834   0.817750   3.603003  16.077041
     C    7   0.035532   0.138127   1.662431   0.408095   0.932609   7.737677
     C    8   0.009907   0.036285   0.142043   0.031017   0.115365   0.849138
     C    9   0.003543   0.010708   0.037669   0.018163   0.019830   0.108735
     C   10   0.004875   0.009365   0.045155   0.040575   0.044318   0.741881
     C   11   0.019914   0.038905   0.352330   0.177773   0.691304   3.520755
     O   12   0.009098   0.017090   0.134068   0.071760   0.064765   1.721713
     O   13   0.072597   0.983399   3.650524   1.617958   0.266407   1.530254
     C   14   0.802127   0.208780   1.893019   3.655183   0.714929   0.173476
     O   15   0.121363   0.106338   0.459363   1.774460   0.083198   0.076571
     C   16   2.837733   0.723555   0.087837   0.759714   0.047476   0.038350
     H   17   0.590235   3.259313   0.722952   0.068812   0.015900   0.018255
     H   18   0.589308   3.193639   0.732601   0.057702   0.018649   0.012149
     H   19   0.004498   0.011820   0.043360   0.638830   3.131416   0.642211
     H   20   0.002637   0.006729   0.023489   0.011983   0.017271   0.065539
     H   21   0.002249   0.008672   0.023454   0.011147   0.018094   0.048287
     H   22   0.000879   0.001582   0.008321   0.005999   0.006663   0.051036
     H   23   0.001183   0.002602   0.012186   0.007563   0.004158   0.050992
     H   24   0.589472   0.021305   0.029476   0.048188   0.004771   0.005423
     H   25   0.603873   0.066297   0.034994   0.054856   0.008082   0.006459
     C   26   0.011363   0.027022   0.111242   0.781433   3.445740   0.733922
     C   27   0.009799   0.010569   0.022055   0.066762   0.746031   0.066807
     C   28   0.002783   0.006954   0.015378   0.022916   0.066833   0.028545
     C   29   0.008425   0.019159   0.047229   0.066548   0.101138   0.051535
     H   30   0.001189   0.002675   0.006196   0.008718   0.012781   0.007699
     C   31   0.007442   0.017201   0.048538   0.062074   0.135531   0.046865
     C   32   0.007306   0.017408   0.051149   0.058591   0.788665   0.049469
     H   33   0.001157   0.002349   0.006356   0.007239   0.012785   0.006996
     H   34   0.000930   0.001846   0.012536   0.010637   0.034706   0.026818
     O   35   0.012500   0.010719   0.033918   0.069780   0.119785   0.038946
     H   36   0.021637   0.021142   0.072872   0.095590   0.116819   0.027816
     O   37   0.006186   0.013674   0.035284   0.050304   0.078444   0.038390
     H   38   0.001247   0.002927   0.007535   0.010717   0.016549   0.008636
     C   39   3.244191   0.702143   0.055786   0.031434   0.008037   0.011055
     H   40   0.617165   0.015844   0.007187   0.004949   0.001271   0.001754
     H   41   0.620434   0.042875   0.012364   0.005623   0.001297   0.001354
     H   42   0.609142   0.017034   0.006262   0.005028   0.001346   0.002101


                  C  1       C  2       C  3       C  4       C  5       C  6
 ------------------------------------------------------------------------------
     C   43   3.206631   0.732466   0.056788   0.068733   0.011548   0.012660
     H   44   0.620664   0.014976   0.014554   0.007849   0.002125   0.002436
     H   45   0.610475   0.008119   0.046747   0.014525   0.004031   0.004358
     H   46   0.622546   0.046456   0.010838   0.007707   0.001564   0.002110
     C   47   0.002103   0.004787   0.025355   0.013687   0.010589   0.070273
     H   48   0.000649   0.001260   0.005002   0.002735   0.001953   0.008061
     H   49   0.000523   0.001064   0.003816   0.002151   0.001258   0.007615
     H   50   0.000744   0.001622   0.010314   0.004872   0.004168   0.013057
     C   51   0.002333   0.005604   0.022194   0.011314   0.007226   0.028395
     H   52   0.000568   0.001241   0.003644   0.002110   0.001379   0.004532
     H   53   0.000525   0.000737   0.002549   0.001459   0.001016   0.005066
     H   54   0.000499   0.000985   0.003480   0.001902   0.001156   0.004553


                  C  7       C  8       C  9       C 10       C 11       O 12
[...]
 EFF. MASS   1.4593

 VIBRATION  143  143A       ATOM PAIR        ENERGY CONTRIBUTION    RADIAL
 FREQ.      2683.57        C 51 --  H 52          +59.1% ( 79.3%)    99.1%
 T-DIPOLE    0.7950        C 51 --  H 54          +29.5% ( 56.0%)    93.9%
 TRAVEL      0.1312        C 51 --  H 53           +6.7% ( 26.7%)    66.3%
 RED. MASS   0.4592        C 47 --  H 50           +2.1% ( 14.8%)    98.8%
 EFF. MASS   1.4601

 VIBRATION  144  144A       ATOM PAIR        ENERGY CONTRIBUTION    RADIAL
 FREQ.      2686.81        C 43 --  H 45          +63.0% ( 81.8%)    99.4%
 T-DIPOLE    0.8443        C 43 --  H 46          +18.3% ( 44.1%)    87.6%
 TRAVEL      0.1309        C 43 --  H 44          +16.0% ( 41.3%)    85.2%
 RED. MASS   0.4742        C 39 --  H 42           +1.2% ( 11.5%)    99.7%
 EFF. MASS   1.4656

 VIBRATION  145  145A       ATOM PAIR        ENERGY CONTRIBUTION    RADIAL
 FREQ.      2688.41        C 47 --  H 50          +60.5% ( 80.2%)    99.3%
 T-DIPOLE    0.8513        C 47 --  H 49          +26.5% ( 53.1%)    92.7%
 TRAVEL      0.1309        C 47 --  H 48           +8.2% ( 29.5%)    72.1%
 RED. MASS   0.4606        C 51 --  H 52           +2.4% ( 15.9%)    99.4%
 EFF. MASS   1.4632

 VIBRATION  146  146A       ATOM PAIR        ENERGY CONTRIBUTION    RADIAL
 FREQ.      2717.94        C  8 --  H 20          +34.7% ( 57.8%)    97.5%
 T-DIPOLE    0.4768        C  8 --  H 21          +26.9% ( 51.0%)    95.9%
 TRAVEL      0.1407        C  2 --  H 17          +16.8% ( 40.3%)    97.6%
 RED. MASS   0.2345        C  2 --  H 18          +12.3% ( 34.4%)    95.5%
 EFF. MASS   1.2532

 VIBRATION  147  147A       ATOM PAIR        ENERGY CONTRIBUTION    RADIAL
 FREQ.      2719.64        C  2 --  H 17          +37.5% ( 60.1%)    97.7%
 T-DIPOLE    2.0106        C  2 --  H 18          +26.8% ( 50.8%)    95.5%
 TRAVEL      0.1406        C  8 --  H 20          +12.8% ( 35.1%)    97.5%
 RED. MASS   0.2378        C  8 --  H 21           +9.8% ( 30.8%)    95.9%
 EFF. MASS   1.2549

 VIBRATION  148  148A       ATOM PAIR        ENERGY CONTRIBUTION    RADIAL
 FREQ.      2726.03        C 10 --  H 22          +52.9% ( 71.6%)    98.1%
 T-DIPOLE    1.1424        C 10 --  H 23          +29.8% ( 53.7%)    94.3%
 TRAVEL      0.1397        C  8 --  H 20           +7.4% ( 26.8%)    97.3%
 RED. MASS   0.3692        C  8 --  H 21           +6.0% ( 24.2%)    95.4%
 EFF. MASS   1.2670

 VIBRATION  149  149A       ATOM PAIR        ENERGY CONTRIBUTION    RADIAL
 FREQ.      2728.99        C 32 --  H 34          +92.4% ( 97.2%)   100.0%
 T-DIPOLE    0.8302        C 31 --  H 33           +3.3% ( 18.5%)    99.8%
 TRAVEL      0.1331        C 28 --  H 30           +1.1% ( 10.4%)   100.0%
 RED. MASS   0.8306        C 26 --  C 32           +1.0% ( 10.3%)    20.1%
 EFF. MASS   1.3942

 VIBRATION  150  150A       ATOM PAIR        ENERGY CONTRIBUTION    RADIAL
 FREQ.      2733.98        C 16 --  H 24          +47.6% ( 67.8%)    96.5%
 T-DIPOLE    0.9820        C 16 --  H 25          +46.0% ( 66.6%)    96.6%
 TRAVEL      0.1399        C  2 --  H 17           +2.2% ( 14.7%)    97.0%
 RED. MASS   0.4326        C  2 --  H 18           +2.0% ( 13.8%)    95.7%
 EFF. MASS   1.2610

 VIBRATION  151  151A       ATOM PAIR        ENERGY CONTRIBUTION    RADIAL
 FREQ.      2745.54        C 28 --  H 30          +76.5% ( 88.4%)   100.0%
 T-DIPOLE    1.7947        C 31 --  H 33          +21.3% ( 46.7%)   100.0%
 TRAVEL      0.1336        C 27 --  C 28           +0.8% (  9.1%)    22.8%
 RED. MASS   0.6127        C 28 --  C 29           +0.8% (  9.0%)    20.7%
 EFF. MASS   1.3763

 VIBRATION  152  152A       ATOM PAIR        ENERGY CONTRIBUTION    RADIAL
 FREQ.      2755.44        C 31 --  H 33          +73.1% ( 86.3%)   100.0%
 T-DIPOLE    1.0126        C 28 --  H 30          +20.0% ( 45.2%)   100.0%
 TRAVEL      0.1312        C 32 --  H 34           +4.3% ( 20.9%)    99.6%
 RED. MASS   0.5610        C 31 --  C 32           +0.9% (  9.7%)    48.0%
 EFF. MASS   1.4224

 VIBRATION  153  153A       ATOM PAIR        ENERGY CONTRIBUTION    RADIAL
 FREQ.      2786.34        C 39 --  H 40          +23.0% ( 46.1%)    96.1%
 T-DIPOLE    0.6473        C 39 --  H 41          +21.8% ( 44.9%)    95.8%
 TRAVEL      0.1458        C 39 --  H 42          +19.9% ( 42.8%)    95.0%
 RED. MASS   0.1779        C 43 --  H 45          +12.5% ( 33.9%)    96.1%
 EFF. MASS   1.1379        C 43 --  H 44          +11.4% ( 32.4%)    95.8%
                           C 43 --  H 46          +11.1% ( 32.1%)    95.7%

 VIBRATION  154  154A       ATOM PAIR        ENERGY CONTRIBUTION    RADIAL
 FREQ.      2787.19        C 51 --  H 52          +19.6% ( 42.5%)    95.8%
 T-DIPOLE    0.6507        C 51 --  H 53          +19.3% ( 42.2%)    95.8%
 TRAVEL      0.1458        C 51 --  H 54          +18.4% ( 41.3%)    95.5%
 RED. MASS   0.1666        C 47 --  H 50          +15.0% ( 37.2%)    96.1%
 EFF. MASS   1.1374        C 47 --  H 49          +14.3% ( 36.4%)    96.0%
                           C 47 --  H 48          +13.0% ( 34.6%)    95.4%

 VIBRATION  155  155A       ATOM PAIR        ENERGY CONTRIBUTION    RADIAL
 FREQ.      2790.42        C 43 --  H 45          +21.8% ( 44.8%)    95.7%
 T-DIPOLE    0.5721        C 43 --  H 44          +21.3% ( 44.3%)    95.4%
 TRAVEL      0.1451        C 43 --  H 46          +21.2% ( 44.2%)    95.4%
 RED. MASS   0.1746        C 39 --  H 40          +12.3% ( 33.7%)    95.7%
 EFF. MASS   1.1471        C 39 --  H 41          +11.8% ( 33.0%)    95.5%
                           C 39 --  H 42          +10.3% ( 30.8%)    94.8%

 VIBRATION  156  156A       ATOM PAIR        ENERGY CONTRIBUTION    RADIAL
 FREQ.      2791.04        C 47 --  H 49          +20.0% ( 42.9%)    95.8%
 T-DIPOLE    0.5497        C 47 --  H 50          +19.0% ( 41.9%)    95.7%
 TRAVEL      0.1451        C 47 --  H 48          +17.7% ( 40.5%)    95.1%
 RED. MASS   0.1635        C 51 --  H 53          +14.4% ( 36.5%)    95.5%
 EFF. MASS   1.1469        C 51 --  H 52          +14.1% ( 36.0%)    95.7%
                           C 51 --  H 54          +13.4% ( 35.1%)    95.0%

 SYMMETRY NUMBER FOR POINT-GROUP C1  =  1


          SYSTEM IS A GROUND STATE


                                                                                                                                                                                                                                                 
 SJ000002349-1_T001S001I001C05: Free energy calculation                                                                                                                                                                                          


          MOLECULE IS NOT LINEAR

          THERE ARE  156 GENUINE VIBRATIONS IN THIS SYSTEM
          THIS THERMODYNAMICS CALCULATION IS LIMITED TO
          MOLECULES WHICH HAVE NO INTERNAL ROTATIONS




                    CALCULATED THERMODYNAMIC PROPERTIES
                                          *
   TEMP. (K)   PARTITION FUNCTION   H.O.F.    ENTHALPY  HEAT CAPACITY ENTROPY
                                   KCAL/MOL   CAL/MOLE    CAL/K/MOL  CAL/K/MOL


 298.00  VIB.     0.8569D+10                 14915.4091   100.0374    95.5020
         ROT.     0.1409D+08                   888.2813     2.9808    35.6920
         INT.     0.1207D+18                 15803.6905   103.0182   131.1940
         TRA.     0.7231D+28                  1480.4688     4.9680    43.7144
         TOT.                     -231.767   17284.1593   107.9862   174.9083

 200.00  VIB.     0.2164D+07                  6717.0627    67.4252    62.5732
         ROT.     0.7746D+07                   596.1620     2.9808    34.5033
         INT.     0.1676D+14                  7313.2246    70.4060    97.0765
         TRA.     0.3976D+28                   993.6033     4.9680    41.7332
         TOT.                     -240.745    8306.8279    75.3741   138.8097

 210.00  VIB.     0.5037D+07                  7407.6752    70.6994    65.9420
         ROT.     0.8334D+07                   625.9700     2.9808    34.6488
         INT.     0.4198D+14                  8033.6452    73.6802   100.5908
         TRA.     0.4278D+28                  1043.2834     4.9680    41.9756
         TOT.                     -239.975    9076.9287    78.6483   142.5664

 220.00  VIB.     0.1173D+08                  8131.0997    73.9881    69.3068
         ROT.     0.8937D+07                   655.7781     2.9808    34.7874
         INT.     0.1048D+15                  8786.8779    76.9689   104.0942
         TRA.     0.4587D+28                  1092.9636     4.9680    42.2067
         TOT.                     -239.172    9879.8415    81.9369   146.3010

 230.00  VIB.     0.2732D+08                  8887.4905    77.2928    72.6686
         ROT.     0.9553D+07                   685.5862     2.9808    34.9199
         INT.     0.2610D+15                  9573.0768    80.2736   107.5885
         TRA.     0.4903D+28                  1142.6437     4.9680    42.4276
         TOT.                     -238.336   10715.7205    85.2416   150.0161

 240.00  VIB.     0.6363D+08                  9677.0091    80.6135    76.0282
         ROT.     0.1018D+08                   715.3943     2.9808    35.0468
         INT.     0.6479D+15                 10392.4035    83.5943   111.0750
         TRA.     0.5226D+28                  1192.3239     4.9680    42.6390
         TOT.                     -237.467   11584.7274    88.5623   153.7140

 250.00  VIB.     0.1482D+09                 10499.8080    83.9484    79.3866
         ROT.     0.1083D+08                   745.2024     2.9808    35.1685
         INT.     0.1604D+16                 11245.0104    86.9293   114.5551
         TRA.     0.5556D+28                  1242.0041     4.9680    42.8418
         TOT.                     -236.564   12487.0145    91.8973   157.3969

 260.00  VIB.     0.3451D+09                 11356.0159    87.2947    82.7443
         ROT.     0.1148D+08                   775.0105     2.9808    35.2854
         INT.     0.3963D+16                 12131.0265    90.2755   118.0296
         TRA.     0.5893D+28                  1291.6842     4.9680    43.0367
         TOT.                     -235.629   13422.7107    95.2436   161.0663

 270.00  VIB.     0.8037D+09                 12245.7275    90.6484    86.1017
         ROT.     0.1215D+08                   804.8186     2.9808    35.3979
         INT.     0.9765D+16                 13050.5461    93.6292   121.4995
         TRA.     0.6236D+28                  1341.3644     4.9680    43.2242
         TOT.                     -234.660   14391.9105    98.5973   164.7237

 280.00  VIB.     0.1872D+10                 13168.9941    94.0049    89.4590
         ROT.     0.1283D+08                   834.6267     2.9808    35.5063
         INT.     0.2401D+17                 14003.6208    96.9857   124.9653
         TRA.     0.6586D+28                  1391.0445     4.9680    43.4048
         TOT.                     -233.657   15394.6653   101.9538   168.3701

 290.00  VIB.     0.4358D+10                 14125.8187    97.3592    92.8163
         ROT.     0.1353D+08                   864.4348     2.9808    35.6109
         INT.     0.5894D+17                 14990.2535   100.3400   128.4272
         TRA.     0.6942D+28                  1440.7247     4.9680    43.5792
         TOT.                     -232.620   16430.9782   105.3080   172.0063

 300.00  VIB.     0.1015D+11                 15116.1526   100.7059    96.1733
         ROT.     0.1423D+08                   894.2429     2.9808    35.7119
         INT.     0.1444D+18                 16010.3955   103.6867   131.8853
         TRA.     0.7304D+28                  1490.4049     4.9680    43.7476
         TOT.                     -231.551   17500.8004   108.6547   175.6329

 310.00  VIB.     0.2363D+11                 16139.8942   104.0399    99.5299
         ROT.     0.1495D+08                   924.0510     2.9808    35.8097
         INT.     0.3532D+18                 17063.9453   107.0207   135.3396
         TRA.     0.7672D+28                  1540.0850     4.9680    43.9105
         TOT.                     -230.447   18604.0303   111.9887   179.2501

 320.00  VIB.     0.5501D+11                 17196.8900   107.3559   102.8854
         ROT.     0.1568D+08                   953.8591     2.9808    35.9043
         INT.     0.8624D+18                 18150.7491   110.3367   138.7897
         TRA.     0.8046D+28                  1589.7652     4.9680    44.0682
         TOT.                     -229.311   19740.5143   115.3047   182.8580

 330.00  VIB.     0.1281D+12                 18286.9357   110.6491   106.2394
         ROT.     0.1642D+08                   983.6672     2.9808    35.9960
         INT.     0.2103D+19                 19270.6029   113.6299   142.2355
         TRA.     0.8426D+28                  1639.4454     4.9680    44.2211
         TOT.                     -228.141   20910.0482   118.5979   186.4566

 340.00  VIB.     0.2981D+12                 19409.7798   113.9148   109.5912
         ROT.     0.1717D+08                  1013.4753     2.9808    36.0850
         INT.     0.5119D+19                 20423.2551   116.8957   145.6762
         TRA.     0.8812D+28                  1689.1255     4.9680    44.3694
         TOT.                     -226.939   22112.3807   121.8637   190.0456

 350.00  VIB.     0.6940D+12                 20565.1272   117.1490   112.9400
         ROT.     0.1793D+08                  1043.2834     2.9808    36.1714
         INT.     0.1244D+20                 21608.4106   120.1298   149.1115
         TRA.     0.9204D+28                  1738.8057     4.9680    44.5134
         TOT.                     -225.704   23347.2163   125.0979   193.6249

 360.00  VIB.     0.1615D+13                 21752.6427   120.3479   116.2852
         ROT.     0.1871D+08                  1073.0915     2.9808    36.2554
         INT.     0.3021D+20                 22825.7343   123.3287   152.5406
         TRA.     0.9601D+28                  1788.4859     4.9680    44.6534
         TOT.                     -224.437   24614.2201   128.2967   197.1939

 370.00  VIB.     0.3758D+13                 22971.9560   123.5081   119.6258
         ROT.     0.1949D+08                  1102.8996     2.9808    36.3371
         INT.     0.7325D+20                 24074.8556   126.4889   155.9628
         TRA.     0.1000D+29                  1838.1660     4.9680    44.7895
         TOT.                     -223.138   25913.0216   131.4569   200.7523

 380.00  VIB.     0.8742D+13                 24222.6656   126.6267   122.9610
         ROT.     0.2029D+08                  1132.7077     2.9808    36.4166
         INT.     0.1774D+21                 25355.3733   129.6075   159.3776
         TRA.     0.1041D+29                  1887.8462     4.9680    44.9220
         TOT.                     -221.808   27243.2195   134.5755   204.2996

 390.00  VIB.     0.2033D+14                 25504.3434   129.7013   126.2900
         ROT.     0.2109D+08                  1162.5158     2.9808    36.4940
         INT.     0.4288D+21                 26666.8592   132.6821   162.7840
         TRA.     0.1083D+29                  1937.5263     4.9680    45.0510
         TOT.                     -220.447   28604.3855   137.6502   207.8351

 400.00  VIB.     0.4726D+14                 26816.5387   132.7299   129.6121
         ROT.     0.2191D+08                  1192.3239     2.9808    36.5695
         INT.     0.1036D+22                 28008.8626   135.7107   166.1815
         TRA.     0.1125D+29                  1987.2065     4.9680    45.1768
         TOT.                     -219.055   29996.0691   140.6787   211.3584

   *: NOTE: HEATS OF FORMATION ARE RELATIVE TO THE
             ELEMENTS IN THEIR STANDARD STATE AT 298K
              (=  Standard Enthalpy of Formation).
            Heat of Formation at T is calculated as [Escf + (HT - H298.15)-.

            Hvib:  Zero-point energy is not included.
                   Wi < 100 cm-1 are not included.
            Hrot = (3/2)RT
            Htra = (3/2)RT + pV = (5/2)RT

            Heat capacity is Cp, not Cv

                 See Section 8.20 in Manual for further information.   (by TH).

           FORCE CONSTANT IN CARTESIAN COORDINATES (Millidynes/A)

    ATOM   CHEMICAL       X               Y               Z
   NUMBER   SYMBOL  FORCE CONSTANT  FORCE CONSTANT  FORCE CONSTANT

      1       C        7.292564        7.854368        7.700784
      2       C        6.908078        7.501644        6.083587
      3       C        8.283134       12.254995        3.440542
      4       C        8.874266       11.741774        3.643463
      5       C        7.913834        7.573879        6.785708
      6       C        9.830071       11.572488        3.040893
      7       C        9.815124       10.997139        3.228900
      8       C        7.600010        6.769500        6.170927
      9       C        7.896077        7.265112        7.696968
     10       C        7.196531        6.851401        6.301572
     11       C        8.750487       11.816378        3.986013
     12       O        2.743380        9.493293        1.511326
     13       O        6.314688        5.472222        1.383750
     14       C        8.507031       11.372605        4.735894
     15       O        3.712587        7.657629        1.984240
     16       C        6.634839        7.460212        6.320581
     17       H        1.121396        1.636417        2.552390
     18       H        1.097322        1.506322        2.634467
     19       H        0.896242        1.662506        2.974634
     20       H        0.783851        2.208366        2.326383
     21       H        1.364928        1.222628        2.650264
     22       H        1.278022        3.270347        0.816125
     23       H        1.271070        0.676824        3.276468
     24       H        0.554095        1.236904        3.508773
     25       H        4.036226        0.737403        0.554483
     26       C        6.727523        5.895802       10.569008
     27       C        6.684021        6.440843       10.374550
     28       C        6.035471        5.687199       10.503810
     29       C        6.789361        6.435764       10.479115
     30       H        2.402030        2.042147        0.837263
     31       C        6.133569        6.060853        9.753543
     32       C        6.069678        5.864085       10.392523
     33       H        0.955869        0.628198        3.769797
     34       H        2.342038        2.090627        0.982607
     35       O        2.003002        2.881140        6.255603
     36       H        0.435958        1.362121        1.896801
     37       O        2.827366        3.233035        5.037678
     38       H        1.797450        1.740193        0.795083
     39       C        6.393934        6.831924        6.438420
     40       H        0.884056        2.368094        2.092470
     41       H        4.102988        0.705548        0.518886
     42       H        0.879767        1.040151        3.413552
     43       C        6.419361        6.443828        6.819753
     44       H        0.867699        1.976339        2.492936
     45       H        0.884970        3.507588        0.968554
     46       H        4.110962        0.510390        0.695531
     47       C        6.435490        6.387016        6.821497
     48       H        0.730990        2.224542        2.351629
     49       H        1.305582        3.091631        0.946203
     50       H        3.994932        0.631746        0.728137
     51       C        6.941824        6.371783        6.387777
     52       H        1.049981        0.816816        3.488457
     53       H        1.642251        3.004508        0.680385
     54       H        1.062629        2.273602        1.992362



 TOTAL CPU TIME:            72.73 SECONDS

 == MOPAC DONE ==
