 *******************************************************************************
 ** Site#:  958            For non-commercial use only         Version 9.015L **
 *******************************************************************************
 ** Cite this work as: MOPAC2009, James J. P. Stewart, Stewart Computational  **
 ** Chemistry, Version 9.015L web: HTTP://OpenMOPAC.net                       **
 *******************************************************************************
 **                                                                           **
 **                                MOPAC2009                                  **
 **                                                                           **
 *******************************************************************************

                            PM6 CALCULATION RESULTS


 *******************************************************************************
 *  CALCULATION DONE:                                Tue Sep  6 17:22:43 2011  *
 *  PM6      - The PM6 Hamiltonian to be used
 *  PDBOUT   - PRINT GEOMETY IN PDB FORMAT
 *  MOZYME   - USE LOCALIZED M.O.s IN SOLVING THE SCF EQUATIONS
 *
 *
 *
 *                 CHARGE ON SYSTEM =    -1
 *
 *
 *
 *  EPS= 78.400
 *  RSOLV=  1.300
 *  LET      - OVERRIDE SOME SAFETY CHECKS
 *  XYZ      - CARTESIAN COORDINATE SYSTEM TO BE USED
 *  LBFGS    - USE THE LBFGS GEOMETRY OPTIMIZER
 *  1SCF     - DO 1 SCF AND THEN STOP 
 *  T=       - A TIME OF  0.3E+08 SECONDS REQUESTED
 *  DUMP=N   - RESTART FILE WRITTEN EVERY  4320.000 SECONDS
 *  DDMIN=   - MINIMUM TRUST RADIUS  0.000 ANG/RAD
 *  GNORM=   - EXIT WHEN GRADIENT NORM DROPS BELOW .150    
 *  RELSCF   - DEFAULT SCF CRITERION MULTIPLIED BY   0.100    
 *             (DEFAULT SCFCRT= 0.00010)
 *  MULLIK   - THE MULLIKEN ANALYSIS TO BE PERFORMED
 *******************************************************************************
 PM6 T=31532289 DUMP=4320 XYZ EPS=78.40 RSOLV=1.30 MULLIK LBFGS MOZYME PDBOUT +
 CHARGE=-1 RELSCF=0.1 LET DDMIN=0.0 GNORM=0.15 1SCF
 SJ000001113-1_T001S001I001C01_002: Geometry optimization step

   ATOM   CHEMICAL          X               Y              Z
  NUMBER   SYMBOL      (ANGSTROMS)     (ANGSTROMS)    (ANGSTROMS)
 
     1       C         -6.4140000  *  -21.434000  *   10.659000  *
     2       C         -7.7690000  *  -21.612000  *   10.315000  *
     3       C         -8.1410000  *  -22.337000  *    9.171000  *
     4       C         -9.4590000  *  -22.489000  *    8.868000  *
     5       C        -10.4490000  *  -21.935000  *    9.678000  *
     6       C        -10.1270000  *  -21.228000  *   10.795000  *
     7       C         -8.7750000  *  -21.050000  *   11.140000  *
     8       C         -8.4080000  *  -20.325000  *   12.286000  *
     9       C         -7.0920000  *  -20.168000  *   12.598000  *
    10       C         -6.0920000  *  -20.720000  *   11.799000  *
    11       H         -7.3840000  *  -22.770000  *    8.533000  *
    12       H         -9.7420000  *  -23.045000  *    7.987000  *
    13       H        -11.4890000  *  -22.071000  *    9.416000  *
    14       H        -10.9050000  *  -20.804000  *   11.413000  *
    15       H         -6.8180000  *  -19.609000  *   13.482000  *
    16       S         -9.6490000  *  -19.622000  *   13.320000  *
    17       O        -10.6260000  *  -20.669000  *   13.574000  *
    18       O         -8.9840000  *  -19.188000  *   14.538000  *
    19       O        -10.2230000  *  -18.505000  *   12.585000  *
    20       O         -4.7850000  *  -20.545000  *   12.137000  *
    21       H         -4.2470000  *  -20.152000  *   11.435000  *
    22       N         -5.4060000  *  -21.980000  *    9.860000  *
    23       H         -4.4840000  *  -21.957000  *   10.160000  *
    24       H         -5.6290000  *  -22.384000  *    9.007000  *
 


          CARTESIAN COORDINATES 

    NO.       ATOM         X         Y         Z

     1         C       -6.4140  -21.4340   10.6590
     2         C       -7.7690  -21.6120   10.3150
     3         C       -8.1410  -22.3370    9.1710
     4         C       -9.4590  -22.4890    8.8680
     5         C      -10.4490  -21.9350    9.6780
     6         C      -10.1270  -21.2280   10.7950
     7         C       -8.7750  -21.0500   11.1400
     8         C       -8.4080  -20.3250   12.2860
     9         C       -7.0920  -20.1680   12.5980
    10         C       -6.0920  -20.7200   11.7990
    11         H       -7.3840  -22.7700    8.5330
    12         H       -9.7420  -23.0450    7.9870
    13         H      -11.4890  -22.0710    9.4160
    14         H      -10.9050  -20.8040   11.4130
    15         H       -6.8180  -19.6090   13.4820
    16         S       -9.6490  -19.6220   13.3200
    17         O      -10.6260  -20.6690   13.5740
    18         O       -8.9840  -19.1880   14.5380
    19         O      -10.2230  -18.5050   12.5850
    20         O       -4.7850  -20.5450   12.1370
    21         H       -4.2470  -20.1520   11.4350
    22         N       -5.4060  -21.9800    9.8600
    23         H       -4.4840  -21.9570   10.1600
    24         H       -5.6290  -22.3840    9.0070

 General Reference for PM6:
 "Optimization of Parameters for Semiempirical Methods V: Modification of NDDO Approximations
 and Application to 70 Elements", J. J. P. Stewart, J. Mol. Mod., 13, 1173-1213 (2007)
 URL: http://www.springerlink.com/content/ar33482301010477/fulltext.pdf

           Empirical Formula: C10 H8 N O4 S  =    24 atoms



      MOLECULAR POINT GROUP   :   C1  
 
   NUMBER AND TYPES OF BONDS IDENTIFIED
 
         SIGMA BONDS               25
         LONE PAIRS                 9
         NORMAL PI BONDS            1
         AROMATIC RING PI BONDS     4
         ANIONS                     3
         SUM OF OTHER CHARGES       2
 
 UNKNOWN RESIDUE:    1 ATOM:    0    C:10 N: 1 O: 4 S: 1 SEE KEYWORD 'XENO'
  AMINO ACID = UNK

                  Ramachandran Angles
              Residue    phi    psi  omega

  

 COMPUTED CHARGE ON SYSTEM:  -1
  SCF CRITERION =    0.1000E-02

 -------------------------------------------------------------------------------
 PM6 T=31532289 DUMP=4320 XYZ EPS=78.40 RSOLV=1.30 MULLIK LBFGS MOZYME PDBOUT +
 CHARGE=-1 RELSCF=0.1 LET DDMIN=0.0 GNORM=0.15 1SCF
 SJ000001113-1_T001S001I001C01_002: Geometry optimization step



     1SCF WAS SPECIFIED, SO BFGS WAS NOT USED                 
     SCF FIELD WAS ACHIEVED                                   


                               PM6     CALCULATION
                                                       MOPAC2009 (Version: 9.015L)
                                                       Tue Sep  6 17:22:44 2011




          FINAL HEAT OF FORMATION =       -235.83868 KCAL =    -986.74902 KJ
          VAN DER WAALS AREA      =        222.06 SQUARE ANGSTROMS


          TOTAL ENERGY            =      -3011.68404 EV
          ELECTRONIC ENERGY       =     -16762.44527 EV
          CORE-CORE REPULSION     =      13750.76123 EV
          DIELECTRIC ENERGY       =         -4.16135 EV
          COSMO AREA              =        222.06 SQUARE ANGSTROMS
          COSMO VOLUME            =        237.52 CUBIC ANGSTROMS

          NO. OF FILLED LEVELS    =         42
          MOLECULAR WEIGHT        =        238.238

          MOLECULAR DIMENSIONS (Angstroms)

            Atom       Atom       Distance
            H    12    O    18     7.63980
            H    13    H    21     6.96553
            O    17    O    19     2.32287


          SCF CALCULATIONS        =          2
          COMPUTATION TIME        =          0.225 SECONDS




   ATOM           CHEMICAL             X               Y              Z
  NUMBER           SYMBOL         (ANGSTROMS)     (ANGSTROMS)    (ANGSTROMS)
 
     1       C(     1 UNK*  1)   -6.4140000  *  -21.434000  *   10.659000  *
     2       C(     2 UNK   1)   -7.7690000  *  -21.612000  *   10.315000  *
     3       C(     3 UNK   1)   -8.1410000  *  -22.337000  *    9.171000  *
     4       C(     4 UNK   1)   -9.4590000  *  -22.489000  *    8.868000  *
     5       C(     5 UNK   1)  -10.4490000  *  -21.935000  *    9.678000  *
     6       C(     6 UNK   1)  -10.1270000  *  -21.228000  *   10.795000  *
     7       C(     7 UNK   1)   -8.7750000  *  -21.050000  *   11.140000  *
     8       C(     8 UNK   1)   -8.4080000  *  -20.325000  *   12.286000  *
     9       C(     9 UNK   1)   -7.0920000  *  -20.168000  *   12.598000  *
    10       C(    10 UNK*  1)   -6.0920000  *  -20.720000  *   11.799000  *
    11       H(    11 UNK   1)   -7.3840000  *  -22.770000  *    8.533000  *
    12       H(    12 UNK   1)   -9.7420000  *  -23.045000  *    7.987000  *
    13       H(    13 UNK   1)  -11.4890000  *  -22.071000  *    9.416000  *
    14       H(    14 UNK   1)  -10.9050000  *  -20.804000  *   11.413000  *
    15       H(    15 UNK   1)   -6.8180000  *  -19.609000  *   13.482000  *
    16       S(    16 UNK   1)   -9.6490000  *  -19.622000  *   13.320000  *
    17       O(    17 UNK   1)  -10.6260000  *  -20.669000  *   13.574000  *
    18       O(    18 UNK   1)   -8.9840000  *  -19.188000  *   14.538000  *
    19       O(    19 UNK   1)  -10.2230000  *  -18.505000  *   12.585000  *
    20       O(    20 UNK*  1)   -4.7850000  *  -20.545000  *   12.137000  *
    21       H(    21 UNK*  1)   -4.2470000  *  -20.152000  *   11.435000  *
    22       N(    22 UNK*  1)   -5.4060000  *  -21.980000  *    9.860000  *
    23       H(    23 UNK*  1)   -4.4840000  *  -21.957000  *   10.160000  *
    24       H(    24 UNK*  1)   -5.6290000  *  -22.384000  *    9.007000  *

           Empirical Formula: C10 H8 N O4 S  =    24 atoms



              NET ATOMIC CHARGES AND DIPOLE CONTRIBUTIONS

  ATOM NO.   TYPE          CHARGE      No. of ELECS.   s-Pop       p-Pop       d-Pop       
    1          C           0.213814        3.7862     1.07755     2.70864
    2          C          -0.198134        4.1981     1.07742     3.12072
    3          C          -0.080798        4.0808     1.09896     2.98184
    4          C          -0.222182        4.2222     1.09787     3.12432
    5          C          -0.064423        4.0644     1.09970     2.96473
    6          C          -0.278194        4.2782     1.10884     3.16936
    7          C           0.225950        3.7741     1.06466     2.70939
    8          C          -0.669718        4.6697     1.15104     3.51867
    9          C           0.042851        3.9571     1.09570     2.86145
   10          C          -0.022754        4.0228     1.05460     2.96816
   11          H           0.158112        0.8419     0.84189
   12          H           0.166891        0.8331     0.83311
   13          H           0.156184        0.8438     0.84382
   14          H           0.187038        0.8130     0.81296
   15          H           0.167864        0.8321     0.83214
   16          S           2.622041        3.3780     1.13314     1.87908     0.36574
   17          O          -1.103543        7.1035     1.87384     5.22970
   18          O          -1.105649        7.1056     1.87340     5.23225
   19          O          -1.107789        7.1078     1.87416     5.23363
   20          O          -0.537623        6.5376     1.77813     4.75949
   21          H           0.357440        0.6426     0.64256
   22          N          -0.466920        5.4669     1.42538     4.04154
   23          H           0.279503        0.7205     0.72050
   24          H           0.280040        0.7200     0.71996

             NET CHARGE ON RESIDUES

     Residue        Charge

      UNK   1        -1.000 ANION
 
 DIPOLE           X         Y         Z       TOTAL
 POINT-CHG.    10.535    -8.341   -14.725    19.935
 HYBRID         1.218    -0.209    -0.711     1.426
 SUM           11.754    -8.550   -15.436    21.202


          CARTESIAN COORDINATES 

    NO.       ATOM               X         Y         Z

     1         C                 -6.4140  -21.4340   10.6590
     2         C                 -7.7690  -21.6120   10.3150
     3         C                 -8.1410  -22.3370    9.1710
     4         C                 -9.4590  -22.4890    8.8680
     5         C                -10.4490  -21.9350    9.6780
     6         C                -10.1270  -21.2280   10.7950
     7         C                 -8.7750  -21.0500   11.1400
     8         C                 -8.4080  -20.3250   12.2860
     9         C                 -7.0920  -20.1680   12.5980
    10         C                 -6.0920  -20.7200   11.7990
    11         H                 -7.3840  -22.7700    8.5330
    12         H                 -9.7420  -23.0450    7.9870
    13         H                -11.4890  -22.0710    9.4160
    14         H                -10.9050  -20.8040   11.4130
    15         H                 -6.8180  -19.6090   13.4820
    16         S                 -9.6490  -19.6220   13.3200
    17         O                -10.6260  -20.6690   13.5740
    18         O                 -8.9840  -19.1880   14.5380
    19         O                -10.2230  -18.5050   12.5850
    20         O                 -4.7850  -20.5450   12.1370
    21         H                 -4.2470  -20.1520   11.4350
    22         N                 -5.4060  -21.9800    9.8600
    23         H                 -4.4840  -21.9570   10.1600
    24         H                 -5.6290  -22.3840    9.0070


          ATOMIC ORBITAL ELECTRON POPULATIONS

   1.07755   0.90435   0.89177   0.91251   1.07742   0.96967   1.10526   1.04579
   1.09896   1.02767   0.96842   0.98574   1.09787   0.99127   1.05959   1.07345
   1.09970   1.06349   0.94090   0.96033   1.10884   1.04664   1.06844   1.05427
   1.06466   0.93222   0.88212   0.89506   1.15104   1.11968   1.23328   1.16571
   1.09570   0.93830   0.91341   1.00974   1.05460   0.80324   1.12525   1.03967
   0.84189   0.83311   0.84382   0.81296   0.83214   1.13314   0.63197   0.62086
   0.62625   0.05734   0.08028   0.06204   0.07937   0.08672   1.87384   1.69966
   1.65910   1.87094   1.87340   1.79266   1.84754   1.59206   1.87416   1.82322
   1.63738   1.77302   1.77813   1.30799   1.86122   1.59029   0.64256   1.42538
   1.15096   1.61625   1.27433   0.72050   0.71996

           MULLIKEN POPULATION ANALYSIS



        MULLIKEN POPULATIONS AND CHARGES

      NO.  ATOM   POPULATION      CHARGE
        1    C     3.754122      0.245878
        2    C     4.219077     -0.219077
        3    C     4.120132     -0.120132
        4    C     4.279525     -0.279525
        5    C     4.108726     -0.108726
        6    C     4.343925     -0.343925
        7    C     3.740216      0.259784
        8    C     4.761185     -0.761185
        9    C     3.978384      0.021616
       10    C     4.021955     -0.021955
       11    H     0.792640      0.207360
       12    H     0.779030      0.220970
       13    H     0.792723      0.207277
       14    H     0.754533      0.245467
       15    H     0.778370      0.221630
       16    S     3.169377      2.830623
       17    O     7.155090     -1.155090
       18    O     7.157327     -1.157327
       19    O     7.159163     -1.159163
       20    O     6.584603     -0.584603
       21    H     0.609142      0.390858
       22    N     5.654381     -0.654381
       23    H     0.643505      0.356495
       24    H     0.642869      0.357131



 TOTAL CPU TIME:             0.23 SECONDS

 == MOPAC DONE ==
 *******************************************************************************
 ** Site#:  958            For non-commercial use only         Version 9.015L **
 *******************************************************************************
 ** Cite this work as: MOPAC2009, James J. P. Stewart, Stewart Computational  **
 ** Chemistry, Version 9.015L web: HTTP://OpenMOPAC.net                       **
 *******************************************************************************
 **                                                                           **
 **                                MOPAC2009                                  **
 **                                                                           **
 *******************************************************************************

                            PM6 CALCULATION RESULTS


 *******************************************************************************
 *  CALCULATION DONE:                                Tue Sep  6 17:22:44 2011  *
 *  PM6      - The PM6 Hamiltonian to be used
 *  GEO-OK   - OVERRIDE INTERATOMIC DISTANCE CHECK
 *  MOZYME   - USE LOCALIZED M.O.s IN SOLVING THE SCF EQUATIONS
 *
 *
 *
 *                 CHARGE ON SYSTEM =    -1
 *
 *
 *
 *  EPS= 78.400
 *  RSOLV=  1.300
 *  OLDGEO   - PREVIOUS GEOMETRY TO BE USED
 *  T=       - A TIME OF 172800.0 SECONDS REQUESTED
 *  DUMP=N   - RESTART FILE WRITTEN EVERY  4320.000 SECONDS
 *  RELSCF   - DEFAULT SCF CRITERION MULTIPLIED BY   0.100    
 *             (DEFAULT SCFCRT= 0.00010)
 *  THERMO   - THERMODYNAMIC QUANTITIES TO BE CALCULATED
 *******************************************************************************
 PM6 DUMP=4320 MOZYME RELSCF=0.1 THERMO EPS=78.40 RSOLV=1.30 +
 OLDGEO GEO-OK CHARGE=-1
 SJ000001113-1_T001S001I001C01_002: Free energy calculation

   ATOM           CHEMICAL             X               Y              Z
  NUMBER           SYMBOL         (ANGSTROMS)     (ANGSTROMS)    (ANGSTROMS)
 
     1       C(     1 UNK*  1)   -6.4140000  *  -21.434000  *   10.659000  *
     2       C(     2 UNK   1)   -7.7690000  *  -21.612000  *   10.315000  *
     3       C(     3 UNK   1)   -8.1410000  *  -22.337000  *    9.171000  *
     4       C(     4 UNK   1)   -9.4590000  *  -22.489000  *    8.868000  *
     5       C(     5 UNK   1)  -10.4490000  *  -21.935000  *    9.678000  *
     6       C(     6 UNK   1)  -10.1270000  *  -21.228000  *   10.795000  *
     7       C(     7 UNK   1)   -8.7750000  *  -21.050000  *   11.140000  *
     8       C(     8 UNK   1)   -8.4080000  *  -20.325000  *   12.286000  *
     9       C(     9 UNK   1)   -7.0920000  *  -20.168000  *   12.598000  *
    10       C(    10 UNK*  1)   -6.0920000  *  -20.720000  *   11.799000  *
    11       H(    11 UNK   1)   -7.3840000  *  -22.770000  *    8.533000  *
    12       H(    12 UNK   1)   -9.7420000  *  -23.045000  *    7.987000  *
    13       H(    13 UNK   1)  -11.4890000  *  -22.071000  *    9.416000  *
    14       H(    14 UNK   1)  -10.9050000  *  -20.804000  *   11.413000  *
    15       H(    15 UNK   1)   -6.8180000  *  -19.609000  *   13.482000  *
    16       S(    16 UNK   1)   -9.6490000  *  -19.622000  *   13.320000  *
    17       O(    17 UNK   1)  -10.6260000  *  -20.669000  *   13.574000  *
    18       O(    18 UNK   1)   -8.9840000  *  -19.188000  *   14.538000  *
    19       O(    19 UNK   1)  -10.2230000  *  -18.505000  *   12.585000  *
    20       O(    20 UNK*  1)   -4.7850000  *  -20.545000  *   12.137000  *
    21       H(    21 UNK*  1)   -4.2470000  *  -20.152000  *   11.435000  *
    22       N(    22 UNK*  1)   -5.4060000  *  -21.980000  *    9.860000  *
    23       H(    23 UNK*  1)   -4.4840000  *  -21.957000  *   10.160000  *
    24       H(    24 UNK*  1)   -5.6290000  *  -22.384000  *    9.007000  *
 


          CARTESIAN COORDINATES 

    NO.       ATOM         X         Y         Z

     1         C       -6.4140  -21.4340   10.6590
     2         C       -7.7690  -21.6120   10.3150
     3         C       -8.1410  -22.3370    9.1710
     4         C       -9.4590  -22.4890    8.8680
     5         C      -10.4490  -21.9350    9.6780
     6         C      -10.1270  -21.2280   10.7950
     7         C       -8.7750  -21.0500   11.1400
     8         C       -8.4080  -20.3250   12.2860
     9         C       -7.0920  -20.1680   12.5980
    10         C       -6.0920  -20.7200   11.7990
    11         H       -7.3840  -22.7700    8.5330
    12         H       -9.7420  -23.0450    7.9870
    13         H      -11.4890  -22.0710    9.4160
    14         H      -10.9050  -20.8040   11.4130
    15         H       -6.8180  -19.6090   13.4820
    16         S       -9.6490  -19.6220   13.3200
    17         O      -10.6260  -20.6690   13.5740
    18         O       -8.9840  -19.1880   14.5380
    19         O      -10.2230  -18.5050   12.5850
    20         O       -4.7850  -20.5450   12.1370
    21         H       -4.2470  -20.1520   11.4350
    22         N       -5.4060  -21.9800    9.8600
    23         H       -4.4840  -21.9570   10.1600
    24         H       -5.6290  -22.3840    9.0070

 General Reference for PM6:
 "Optimization of Parameters for Semiempirical Methods V: Modification of NDDO Approximations
 and Application to 70 Elements", J. J. P. Stewart, J. Mol. Mod., 13, 1173-1213 (2007)
 URL: http://www.springerlink.com/content/ar33482301010477/fulltext.pdf

           Empirical Formula: C10 H8 N O4 S  =    24 atoms



      MOLECULAR POINT GROUP   :   C1  
 
   NUMBER AND TYPES OF BONDS IDENTIFIED
 
         SIGMA BONDS               25
         LONE PAIRS                 9
         NORMAL PI BONDS            1
         AROMATIC RING PI BONDS     4
         ANIONS                     3
         SUM OF OTHER CHARGES       2
 

 COMPUTED CHARGE ON SYSTEM:  -1
  SCF CRITERION =    0.1000E-02


          HEAT OF FORMATION =    -235.838692 KCALS/MOLE


          INTERNAL COORDINATE DERIVATIVES

   NUMBER  ATOM       BOND         ANGLE      DIHEDRAL

     1       C
     2       C     26.920004
     3       C    -47.542265    -2.193191
     4       C    -15.689311     6.841491     0.590091
     5       C     -0.125353   -13.528381     0.317991
     6       C     -6.835897   -27.216786     0.083813
     7       C    -24.790466     8.151491    -0.313472
     8       C    -11.166756     5.585687     1.623907
     9       C      5.735272     2.133438     0.363390
    10       C    -12.394687    22.553577    -1.501243
    11       H     12.733070    20.159603    -0.126717
    12       H      0.625312     8.660310     7.394395
    13       H      3.911177    -8.911320    -0.087300
    14       H     -6.637398    -7.919227    -0.086176
    15       H    -10.149419    -1.769210     0.112106
    16       S     -7.716959     6.205232    -0.322780
    17       O     10.311268     8.556564     0.181753
    18       O     33.160962   -53.564464     0.123084
    19       O    -35.223691     5.104626   -35.358499
    20       O     30.833589    38.361221    -9.066800
    21       H    -21.257668     9.390491    43.116794
    22       N     26.109774    16.520225   -17.003419
    23       H      2.799020    -6.563789    11.958970
    24       H    -17.979762    37.727344     0.428775


          GRADIENT NORM = 151.69537



 ** GRADIENT IS TOO LARGE TO ALLOW FORCE MATRIX TO BE CALCULATED, (LIMIT=10) **



 EITHER ADD 'LET' OR REDUCE GRADIENT
 USING 'TS' OR OTHER GEOMETRY OPTIMIZER



 TOTAL CPU TIME:             0.51 SECONDS

 == MOPAC DONE ==
