 *******************************************************************************
 ** Site#:  958            For non-commercial use only         Version 9.015L **
 *******************************************************************************
 ** Cite this work as: MOPAC2009, James J. P. Stewart, Stewart Computational  **
 ** Chemistry, Version 9.015L web: HTTP://OpenMOPAC.net                       **
 *******************************************************************************
 **                                                                           **
 **                                MOPAC2009                                  **
 **                                                                           **
 *******************************************************************************

                            PM6 CALCULATION RESULTS


 *******************************************************************************
 *  CALCULATION DONE:                                Tue Sep  6 17:24:31 2011  *
 *  PM6      - The PM6 Hamiltonian to be used
 *  PDBOUT   - PRINT GEOMETY IN PDB FORMAT
 *  MOZYME   - USE LOCALIZED M.O.s IN SOLVING THE SCF EQUATIONS
 *
 *
 *
 *                 CHARGE ON SYSTEM =     0
 *
 *
 *
 *  EPS= 78.400
 *  RSOLV=  1.300
 *  LET      - OVERRIDE SOME SAFETY CHECKS
 *  XYZ      - CARTESIAN COORDINATE SYSTEM TO BE USED
 *  LBFGS    - USE THE LBFGS GEOMETRY OPTIMIZER
 *  1SCF     - DO 1 SCF AND THEN STOP 
 *  T=       - A TIME OF  0.3E+08 SECONDS REQUESTED
 *  DUMP=N   - RESTART FILE WRITTEN EVERY  4320.000 SECONDS
 *  DDMIN=   - MINIMUM TRUST RADIUS  0.000 ANG/RAD
 *  GNORM=   - EXIT WHEN GRADIENT NORM DROPS BELOW .150    
 *  RELSCF   - DEFAULT SCF CRITERION MULTIPLIED BY   0.100    
 *             (DEFAULT SCFCRT= 0.00010)
 *  MULLIK   - THE MULLIKEN ANALYSIS TO BE PERFORMED
 *******************************************************************************
 PM6 T=31532182 DUMP=4320 XYZ EPS=78.40 RSOLV=1.30 MULLIK LBFGS MOZYME PDBOUT +
 CHARGE=-0 RELSCF=0.1 LET DDMIN=0.0 GNORM=0.15 1SCF
 SJ000001185-1_T001S001I001C01_002: Geometry optimization step

   ATOM   CHEMICAL          X               Y              Z
  NUMBER   SYMBOL      (ANGSTROMS)     (ANGSTROMS)    (ANGSTROMS)
 
     1       N         -3.5220000  *  -26.204000  *   11.388000  *
     2       C         -2.7430000  *  -26.409000  *   10.310000  *
     3       O         -3.2530000  *  -26.624000  *    9.226000  *
     4       C         -1.2780000  *  -26.374000  *   10.434000  *
     5       C         -0.4380000  *  -26.580000  *    9.350000  *
     6       C          0.9420000  *  -26.539000  *    9.519000  *
     7       C          1.5060000  *  -26.297000  *   10.738000  *
     8       C         -0.7110000  *  -26.123000  *   11.704000  *
     9       C          0.6890000  *  -26.082000  *   11.862000  *
    10       C          1.2230000  *  -25.829000  *   13.138000  *
    11       C          0.3890000  *  -25.628000  *   14.200000  *
    12       C         -0.9940000  *  -25.666000  *   14.057000  *
    13       C         -1.5590000  *  -25.912000  *   12.815000  *
    14       C         -3.0140000  *  -25.957000  *   12.610000  *
    15       O         -3.7640000  *  -25.778000  *   13.551000  *
    16       H         -0.8550000  *  -26.774000  *    8.374000  *
    17       H          1.5820000  *  -26.701000  *    8.664000  *
    18       H          2.2930000  *  -25.794000  *   13.278000  *
    19       H          0.8130000  *  -25.435000  *   15.173000  *
    20       H         -1.6290000  *  -25.503000  *   14.915000  *
    21       C         -4.9140000  *  -26.243000  *   11.231000  *
    22       C         -5.6410000  *  -25.062000  *   11.179000  *
    23       C         -7.0180000  *  -25.105000  *   11.024000  *
    24       H         -5.1350000  *  -24.111000  *   11.259000  *
    25       C         -7.6670000  *  -26.329000  *   10.927000  *
    26       C         -6.9400000  *  -27.503000  *   10.973000  *
    27       H         -8.7390000  *  -26.362000  *   10.806000  *
    28       C         -5.5680000  *  -27.464000  *   11.127000  *
    29       H         -7.4470000  *  -28.454000  *   10.892000  *
    30       H         -5.0040000  *  -28.384000  *   11.168000  *
    31       O         -7.7320000  *  -23.950000  *   10.975000  *
    32       H         -8.6720000  *  -24.077000  *   10.789000  *
    33       N          2.9800000  *  -26.260000  *   10.876000  *
    34       O          3.5790000  *  -25.210000  *   10.726000  *
    35       O          3.5920000  *  -27.279000  *   11.139000  *
 


          CARTESIAN COORDINATES 

    NO.       ATOM         X         Y         Z

     1         N       -3.5220  -26.2040   11.3880
     2         C       -2.7430  -26.4090   10.3100
     3         O       -3.2530  -26.6240    9.2260
     4         C       -1.2780  -26.3740   10.4340
     5         C       -0.4380  -26.5800    9.3500
     6         C        0.9420  -26.5390    9.5190
     7         C        1.5060  -26.2970   10.7380
     8         C       -0.7110  -26.1230   11.7040
     9         C        0.6890  -26.0820   11.8620
    10         C        1.2230  -25.8290   13.1380
    11         C        0.3890  -25.6280   14.2000
    12         C       -0.9940  -25.6660   14.0570
    13         C       -1.5590  -25.9120   12.8150
    14         C       -3.0140  -25.9570   12.6100
    15         O       -3.7640  -25.7780   13.5510
    16         H       -0.8550  -26.7740    8.3740
    17         H        1.5820  -26.7010    8.6640
    18         H        2.2930  -25.7940   13.2780
    19         H        0.8130  -25.4350   15.1730
    20         H       -1.6290  -25.5030   14.9150
    21         C       -4.9140  -26.2430   11.2310
    22         C       -5.6410  -25.0620   11.1790
    23         C       -7.0180  -25.1050   11.0240
    24         H       -5.1350  -24.1110   11.2590
    25         C       -7.6670  -26.3290   10.9270
    26         C       -6.9400  -27.5030   10.9730
    27         H       -8.7390  -26.3620   10.8060
    28         C       -5.5680  -27.4640   11.1270
    29         H       -7.4470  -28.4540   10.8920
    30         H       -5.0040  -28.3840   11.1680
    31         O       -7.7320  -23.9500   10.9750
    32         H       -8.6720  -24.0770   10.7890
    33         N        2.9800  -26.2600   10.8760
    34         O        3.5790  -25.2100   10.7260
    35         O        3.5920  -27.2790   11.1390

 General Reference for PM6:
 "Optimization of Parameters for Semiempirical Methods V: Modification of NDDO Approximations
 and Application to 70 Elements", J. J. P. Stewart, J. Mol. Mod., 13, 1173-1213 (2007)
 URL: http://www.springerlink.com/content/ar33482301010477/fulltext.pdf

           Empirical Formula: C18 H10 N2 O5  =    35 atoms



      MOLECULAR POINT GROUP   :   C1  
 
   NUMBER AND TYPES OF BONDS IDENTIFIED
 
         SIGMA BONDS               39
         LONE PAIRS                12
         NORMAL PI BONDS            4
         AROMATIC RING PI BONDS     6
 

                  Ramachandran Angles
              Residue    phi    psi  omega

  
  SCF CRITERION =    0.1000E-02

 -------------------------------------------------------------------------------
 PM6 T=31532182 DUMP=4320 XYZ EPS=78.40 RSOLV=1.30 MULLIK LBFGS MOZYME PDBOUT +
 CHARGE=-0 RELSCF=0.1 LET DDMIN=0.0 GNORM=0.15 1SCF
 SJ000001185-1_T001S001I001C01_002: Geometry optimization step



     1SCF WAS SPECIFIED, SO BFGS WAS NOT USED                 
     SCF FIELD WAS ACHIEVED                                   


                               PM6     CALCULATION
                                                       MOPAC2009 (Version: 9.015L)
                                                       Tue Sep  6 17:24:31 2011




          FINAL HEAT OF FORMATION =        -47.78643 KCAL =    -199.93841 KJ
          VAN DER WAALS AREA      =        313.23 SQUARE ANGSTROMS


          TOTAL ENERGY            =      -4155.32108 EV
          ELECTRONIC ENERGY       =     -29679.85043 EV
          CORE-CORE REPULSION     =      25524.52934 EV
          DIELECTRIC ENERGY       =         -1.09210 EV
          COSMO AREA              =        313.23 SQUARE ANGSTROMS
          COSMO VOLUME            =        347.16 CUBIC ANGSTROMS

          NO. OF FILLED LEVELS    =         61
          MOLECULAR WEIGHT        =        334.287

          MOLECULAR DIMENSIONS (Angstroms)

            Atom       Atom       Distance
            O    35    H    32    12.67994
            H    19    H    16     6.97579
            O    34    H    29     5.84969


          SCF CALCULATIONS        =          2
          COMPUTATION TIME        =          0.578 SECONDS




   ATOM           CHEMICAL             X               Y              Z
  NUMBER           SYMBOL         (ANGSTROMS)     (ANGSTROMS)    (ANGSTROMS)
 
     1       N(     1  N     )   -3.5220000  *  -26.204000  *   11.388000  *
     2       C(     2  C     )   -2.7430000  *  -26.409000  *   10.310000  *
     3       O(     3  O     )   -3.2530000  *  -26.624000  *    9.226000  *
     4       C(     4  C     )   -1.2780000  *  -26.374000  *   10.434000  *
     5       C(     5  C     )   -0.4380000  *  -26.580000  *    9.350000  *
     6       C(     6  C     )    0.9420000  *  -26.539000  *    9.519000  *
     7       C(     7  C     )    1.5060000  *  -26.297000  *   10.738000  *
     8       C(     8  C     )   -0.7110000  *  -26.123000  *   11.704000  *
     9       C(     9  C     )    0.6890000  *  -26.082000  *   11.862000  *
    10       C(    10  C     )    1.2230000  *  -25.829000  *   13.138000  *
    11       C(    11  C     )    0.3890000  *  -25.628000  *   14.200000  *
    12       C(    12  C     )   -0.9940000  *  -25.666000  *   14.057000  *
    13       C(    13  C     )   -1.5590000  *  -25.912000  *   12.815000  *
    14       C(    14  C     )   -3.0140000  *  -25.957000  *   12.610000  *
    15       O(    15  O     )   -3.7640000  *  -25.778000  *   13.551000  *
    16       H(    16  C     )   -0.8550000  *  -26.774000  *    8.374000  *
    17       H(    17  C     )    1.5820000  *  -26.701000  *    8.664000  *
    18       H(    18  C     )    2.2930000  *  -25.794000  *   13.278000  *
    19       H(    19  C     )    0.8130000  *  -25.435000  *   15.173000  *
    20       H(    20  C     )   -1.6290000  *  -25.503000  *   14.915000  *
    21       C(    21  C     )   -4.9140000  *  -26.243000  *   11.231000  *
    22       C(    22  C     )   -5.6410000  *  -25.062000  *   11.179000  *
    23       C(    23  C     )   -7.0180000  *  -25.105000  *   11.024000  *
    24       H(    24  C     )   -5.1350000  *  -24.111000  *   11.259000  *
    25       C(    25  C     )   -7.6670000  *  -26.329000  *   10.927000  *
    26       C(    26  C     )   -6.9400000  *  -27.503000  *   10.973000  *
    27       H(    27  C     )   -8.7390000  *  -26.362000  *   10.806000  *
    28       C(    28  C     )   -5.5680000  *  -27.464000  *   11.127000  *
    29       H(    29  C     )   -7.4470000  *  -28.454000  *   10.892000  *
    30       H(    30  C     )   -5.0040000  *  -28.384000  *   11.168000  *
    31       O(    31  O     )   -7.7320000  *  -23.950000  *   10.975000  *
    32       H(    32  O     )   -8.6720000  *  -24.077000  *   10.789000  *
    33       N(    33  N     )    2.9800000  *  -26.260000  *   10.876000  *
    34       O(    34  O     )    3.5790000  *  -25.210000  *   10.726000  *
    35       O(    35  O     )    3.5920000  *  -27.279000  *   11.139000  *

           Empirical Formula: C18 H10 N2 O5  =    35 atoms



              NET ATOMIC CHARGES AND DIPOLE CONTRIBUTIONS

  ATOM NO.   TYPE          CHARGE      No. of ELECS.   s-Pop       p-Pop       
    1          N          -0.378388        5.3784     1.47865     3.89974
    2          C           0.642535        3.3575     1.04986     2.30760
    3          O          -0.575335        6.5753     1.84975     4.72559
    4          C          -0.233150        4.2331     1.10393     3.12922
    5          C           0.035308        3.9647     1.10709     2.85761
    6          C          -0.140446        4.1404     1.10248     3.03797
    7          C          -0.069852        4.0699     1.10649     2.96336
    8          C           0.146629        3.8534     1.07036     2.78301
    9          C          -0.057715        4.0577     1.07087     2.98685
   10          C          -0.057587        4.0576     1.10767     2.94992
   11          C          -0.199212        4.1992     1.10315     3.09606
   12          C           0.068649        3.9314     1.11033     2.82102
   13          C          -0.287613        4.2876     1.09808     3.18953
   14          C           0.649850        3.3501     1.05010     2.30005
   15          O          -0.582757        6.5828     1.84900     4.73375
   16          H           0.191474        0.8085     0.80853
   17          H           0.205065        0.7949     0.79493
   18          H           0.175957        0.8240     0.82404
   19          H           0.192435        0.8076     0.80756
   20          H           0.179419        0.8206     0.82058
   21          C           0.260152        3.7398     1.04997     2.68987
   22          C          -0.369686        4.3697     1.10152     3.26817
   23          C           0.380368        3.6196     1.06274     2.55690
   24          H           0.203791        0.7962     0.79621
   25          C          -0.376500        4.3765     1.11035     3.26615
   26          C           0.014363        3.9856     1.09701     2.88863
   27          H           0.194035        0.8060     0.80596
   28          C          -0.303330        4.3033     1.10500     3.19833
   29          H           0.162599        0.8374     0.83740
   30          H           0.188670        0.8113     0.81133
   31          O          -0.510063        6.5101     1.78196     4.72811
   32          H           0.370330        0.6297     0.62967
   33          N           0.836770        4.1632     1.30630     2.85693
   34          O          -0.479064        6.4791     1.91769     4.56137
   35          O          -0.477701        6.4777     1.91742     4.56028


          CARTESIAN COORDINATES 

    NO.       ATOM               X         Y         Z

     1         N                 -3.5220  -26.2040   11.3880
     2         C                 -2.7430  -26.4090   10.3100
     3         O                 -3.2530  -26.6240    9.2260
     4         C                 -1.2780  -26.3740   10.4340
     5         C                 -0.4380  -26.5800    9.3500
     6         C                  0.9420  -26.5390    9.5190
     7         C                  1.5060  -26.2970   10.7380
     8         C                 -0.7110  -26.1230   11.7040
     9         C                  0.6890  -26.0820   11.8620
    10         C                  1.2230  -25.8290   13.1380
    11         C                  0.3890  -25.6280   14.2000
    12         C                 -0.9940  -25.6660   14.0570
    13         C                 -1.5590  -25.9120   12.8150
    14         C                 -3.0140  -25.9570   12.6100
    15         O                 -3.7640  -25.7780   13.5510
    16         H                 -0.8550  -26.7740    8.3740
    17         H                  1.5820  -26.7010    8.6640
    18         H                  2.2930  -25.7940   13.2780
    19         H                  0.8130  -25.4350   15.1730
    20         H                 -1.6290  -25.5030   14.9150
    21         C                 -4.9140  -26.2430   11.2310
    22         C                 -5.6410  -25.0620   11.1790
    23         C                 -7.0180  -25.1050   11.0240
    24         H                 -5.1350  -24.1110   11.2590
    25         C                 -7.6670  -26.3290   10.9270
    26         C                 -6.9400  -27.5030   10.9730
    27         H                 -8.7390  -26.3620   10.8060
    28         C                 -5.5680  -27.4640   11.1270
    29         H                 -7.4470  -28.4540   10.8920
    30         H                 -5.0040  -28.3840   11.1680
    31         O                 -7.7320  -23.9500   10.9750
    32         H                 -8.6720  -24.0770   10.7890
    33         N                  2.9800  -26.2600   10.8760
    34         O                  3.5790  -25.2100   10.7260
    35         O                  3.5920  -27.2790   11.1390


          ATOMIC ORBITAL ELECTRON POPULATIONS

   1.47865   1.13782   1.60186   1.16005   1.04986   0.85051   0.68218   0.77491
   1.84975   1.77462   1.55022   1.40075   1.10393   0.99948   1.11493   1.01481
   1.10709   0.95404   0.85474   1.04882   1.10248   1.03111   0.97387   1.03299
   1.10649   0.87924   1.06873   1.01539   1.07036   0.94077   0.91349   0.92875
   1.07087   0.97089   1.05458   0.96138   1.10767   1.08470   0.91086   0.95436
   1.10315   0.99480   1.01688   1.08438   1.11033   0.99713   0.81643   1.00747
   1.09808   0.99137   1.17529   1.02288   1.05010   0.85668   0.67715   0.76621
   1.84900   1.66357   1.56066   1.50952   0.80853   0.79493   0.82404   0.80756
   0.82058   1.04997   0.78817   0.94879   0.95291   1.10152   1.01519   1.09295
   1.16004   1.06274   0.88636   0.80053   0.87001   0.79621   1.11035   1.11868
   1.00555   1.14193   1.09701   0.96566   1.03509   0.88787   0.80596   1.10500
   1.03147   1.06509   1.10176   0.83740   0.81133   1.78196   1.39886   1.45839
   1.87085   0.62967   1.30630   1.00129   0.93520   0.92045   1.91769   1.70784
   1.30107   1.55246   1.91742   1.69905   1.33494   1.52629

           MULLIKEN POPULATION ANALYSIS



        MULLIKEN POPULATIONS AND CHARGES

      NO.  ATOM   POPULATION      CHARGE
        1    N     5.552186     -0.552186
        2    C     3.274321      0.725679
        3    O     6.593773     -0.593773
        4    C     4.264333     -0.264333
        5    C     4.001320     -0.001320
        6    C     4.194085     -0.194085
        7    C     4.067419     -0.067419
        8    C     3.828778      0.171222
        9    C     4.062255     -0.062255
       10    C     4.103303     -0.103303
       11    C     4.262976     -0.262976
       12    C     3.966154      0.033846
       13    C     4.318685     -0.318685
       14    C     3.266238      0.733762
       15    O     6.601736     -0.601736
       16    H     0.748200      0.251800
       17    H     0.730528      0.269472
       18    H     0.767616      0.232384
       19    H     0.746596      0.253404
       20    H     0.763323      0.236677
       21    C     3.692010      0.307990
       22    C     4.433678     -0.433678
       23    C     3.600764      0.399236
       24    H     0.732367      0.267633
       25    C     4.450174     -0.450174
       26    C     4.020227     -0.020227
       27    H     0.745165      0.254835
       28    C     4.365320     -0.365320
       29    H     0.785205      0.214795
       30    H     0.751613      0.248387
       31    O     6.561134     -0.561134
       32    H     0.594735      0.405265
       33    N     4.216587      0.783413
       34    O     6.469275     -0.469275
       35    O     6.467922     -0.467922



 TOTAL CPU TIME:             0.59 SECONDS

 == MOPAC DONE ==
 *******************************************************************************
 ** Site#:  958            For non-commercial use only         Version 9.015L **
 *******************************************************************************
 ** Cite this work as: MOPAC2009, James J. P. Stewart, Stewart Computational  **
 ** Chemistry, Version 9.015L web: HTTP://OpenMOPAC.net                       **
 *******************************************************************************
 **                                                                           **
 **                                MOPAC2009                                  **
 **                                                                           **
 *******************************************************************************

                            PM6 CALCULATION RESULTS


 *******************************************************************************
 *  CALCULATION DONE:                                Tue Sep  6 17:24:31 2011  *
 *  PM6      - The PM6 Hamiltonian to be used
 *  GEO-OK   - OVERRIDE INTERATOMIC DISTANCE CHECK
 *  MOZYME   - USE LOCALIZED M.O.s IN SOLVING THE SCF EQUATIONS
 *
 *
 *
 *                 CHARGE ON SYSTEM =     0
 *
 *
 *
 *  EPS= 78.400
 *  RSOLV=  1.300
 *  OLDGEO   - PREVIOUS GEOMETRY TO BE USED
 *  T=       - A TIME OF 172800.0 SECONDS REQUESTED
 *  DUMP=N   - RESTART FILE WRITTEN EVERY  4320.000 SECONDS
 *  RELSCF   - DEFAULT SCF CRITERION MULTIPLIED BY   0.100    
 *             (DEFAULT SCFCRT= 0.00010)
 *  THERMO   - THERMODYNAMIC QUANTITIES TO BE CALCULATED
 *******************************************************************************
 PM6 DUMP=4320 MOZYME RELSCF=0.1 THERMO EPS=78.40 RSOLV=1.30 +
 OLDGEO GEO-OK CHARGE=-0
 SJ000001185-1_T001S001I001C01_002: Free energy calculation

   ATOM           CHEMICAL             X               Y              Z
  NUMBER           SYMBOL         (ANGSTROMS)     (ANGSTROMS)    (ANGSTROMS)
 
     1       N(     1  N     )   -3.5220000  *  -26.204000  *   11.388000  *
     2       C(     2  C     )   -2.7430000  *  -26.409000  *   10.310000  *
     3       O(     3  O     )   -3.2530000  *  -26.624000  *    9.226000  *
     4       C(     4  C     )   -1.2780000  *  -26.374000  *   10.434000  *
     5       C(     5  C     )   -0.4380000  *  -26.580000  *    9.350000  *
     6       C(     6  C     )    0.9420000  *  -26.539000  *    9.519000  *
     7       C(     7  C     )    1.5060000  *  -26.297000  *   10.738000  *
     8       C(     8  C     )   -0.7110000  *  -26.123000  *   11.704000  *
     9       C(     9  C     )    0.6890000  *  -26.082000  *   11.862000  *
    10       C(    10  C     )    1.2230000  *  -25.829000  *   13.138000  *
    11       C(    11  C     )    0.3890000  *  -25.628000  *   14.200000  *
    12       C(    12  C     )   -0.9940000  *  -25.666000  *   14.057000  *
    13       C(    13  C     )   -1.5590000  *  -25.912000  *   12.815000  *
    14       C(    14  C     )   -3.0140000  *  -25.957000  *   12.610000  *
    15       O(    15  O     )   -3.7640000  *  -25.778000  *   13.551000  *
    16       H(    16  C     )   -0.8550000  *  -26.774000  *    8.374000  *
    17       H(    17  C     )    1.5820000  *  -26.701000  *    8.664000  *
    18       H(    18  C     )    2.2930000  *  -25.794000  *   13.278000  *
    19       H(    19  C     )    0.8130000  *  -25.435000  *   15.173000  *
    20       H(    20  C     )   -1.6290000  *  -25.503000  *   14.915000  *
    21       C(    21  C     )   -4.9140000  *  -26.243000  *   11.231000  *
    22       C(    22  C     )   -5.6410000  *  -25.062000  *   11.179000  *
    23       C(    23  C     )   -7.0180000  *  -25.105000  *   11.024000  *
    24       H(    24  C     )   -5.1350000  *  -24.111000  *   11.259000  *
    25       C(    25  C     )   -7.6670000  *  -26.329000  *   10.927000  *
    26       C(    26  C     )   -6.9400000  *  -27.503000  *   10.973000  *
    27       H(    27  C     )   -8.7390000  *  -26.362000  *   10.806000  *
    28       C(    28  C     )   -5.5680000  *  -27.464000  *   11.127000  *
    29       H(    29  C     )   -7.4470000  *  -28.454000  *   10.892000  *
    30       H(    30  C     )   -5.0040000  *  -28.384000  *   11.168000  *
    31       O(    31  O     )   -7.7320000  *  -23.950000  *   10.975000  *
    32       H(    32  O     )   -8.6720000  *  -24.077000  *   10.789000  *
    33       N(    33  N     )    2.9800000  *  -26.260000  *   10.876000  *
    34       O(    34  O     )    3.5790000  *  -25.210000  *   10.726000  *
    35       O(    35  O     )    3.5920000  *  -27.279000  *   11.139000  *
 


          CARTESIAN COORDINATES 

    NO.       ATOM         X         Y         Z

     1         N       -3.5220  -26.2040   11.3880
     2         C       -2.7430  -26.4090   10.3100
     3         O       -3.2530  -26.6240    9.2260
     4         C       -1.2780  -26.3740   10.4340
     5         C       -0.4380  -26.5800    9.3500
     6         C        0.9420  -26.5390    9.5190
     7         C        1.5060  -26.2970   10.7380
     8         C       -0.7110  -26.1230   11.7040
     9         C        0.6890  -26.0820   11.8620
    10         C        1.2230  -25.8290   13.1380
    11         C        0.3890  -25.6280   14.2000
    12         C       -0.9940  -25.6660   14.0570
    13         C       -1.5590  -25.9120   12.8150
    14         C       -3.0140  -25.9570   12.6100
    15         O       -3.7640  -25.7780   13.5510
    16         H       -0.8550  -26.7740    8.3740
    17         H        1.5820  -26.7010    8.6640
    18         H        2.2930  -25.7940   13.2780
    19         H        0.8130  -25.4350   15.1730
    20         H       -1.6290  -25.5030   14.9150
    21         C       -4.9140  -26.2430   11.2310
    22         C       -5.6410  -25.0620   11.1790
    23         C       -7.0180  -25.1050   11.0240
    24         H       -5.1350  -24.1110   11.2590
    25         C       -7.6670  -26.3290   10.9270
    26         C       -6.9400  -27.5030   10.9730
    27         H       -8.7390  -26.3620   10.8060
    28         C       -5.5680  -27.4640   11.1270
    29         H       -7.4470  -28.4540   10.8920
    30         H       -5.0040  -28.3840   11.1680
    31         O       -7.7320  -23.9500   10.9750
    32         H       -8.6720  -24.0770   10.7890
    33         N        2.9800  -26.2600   10.8760
    34         O        3.5790  -25.2100   10.7260
    35         O        3.5920  -27.2790   11.1390

 General Reference for PM6:
 "Optimization of Parameters for Semiempirical Methods V: Modification of NDDO Approximations
 and Application to 70 Elements", J. J. P. Stewart, J. Mol. Mod., 13, 1173-1213 (2007)
 URL: http://www.springerlink.com/content/ar33482301010477/fulltext.pdf

           Empirical Formula: C18 H10 N2 O5  =    35 atoms



      MOLECULAR POINT GROUP   :   C1  
 
   NUMBER AND TYPES OF BONDS IDENTIFIED
 
         SIGMA BONDS               39
         LONE PAIRS                12
         NORMAL PI BONDS            4
         AROMATIC RING PI BONDS     6
 
  SCF CRITERION =    0.1000E-02


          HEAT OF FORMATION =     -47.786533 KCALS/MOLE


          INTERNAL COORDINATE DERIVATIVES

   NUMBER  ATOM       BOND         ANGLE      DIHEDRAL

     1       N
     2       C      5.210081
     3       O    -12.937479    -0.809318
     4       C   -105.193974    -9.741896     0.364360
     5       C    -15.133746   -26.560531    -0.477441
     6       C    -15.604143    10.276703     0.163950
     7       C     24.430338   -24.381502     0.083203
     8       C    -27.572817    14.996597    -0.171269
     9       C     -8.357404     4.850240    -0.108026
    10       C     -0.303309    -1.265978    -0.105454
    11       C      3.677903     3.850298     0.188325
    12       C      4.315299    15.749910     0.054741
    13       C     -1.383644    23.071896    -0.002581
    14       C     11.168833   -29.426122    -0.016257
    15       O     -1.424146    11.755168    -0.445774
    16       H     62.088426    90.640235     0.107223
    17       H     32.184081    -2.478818     0.058040
    18       H     -8.021839   -11.781709     0.001487
    19       H    -16.030338    -3.182079     0.057989
    20       H     -3.668654    10.668581    -0.069666
    21       C      8.562019    11.211795     0.039114
    22       C     13.126060    -0.354514     0.031110
    23       C     33.195481   -60.333890     0.110489
    24       H     -0.544118    13.002209   -28.906358
    25       C      3.988974    -7.882806     3.049066
    26       C      0.054123     4.108499    -9.332521
    27       H      7.463308   -19.817571     7.595323
    28       C      4.242783    -9.966500     7.181062
    29       H      4.982803    -8.655185     0.317426
    30       H     -9.519330    10.078784    18.666534
    31       O      0.757263    -5.116729     8.269710
    32       H     -3.880031     2.767624     8.628538
    33       N     -7.155454    22.470499   -17.035518
    34       O      7.818321   -16.765505     2.428773
    35       O    -12.357059    14.789087    -0.672791


          GRADIENT NORM = 202.20242



 ** GRADIENT IS TOO LARGE TO ALLOW FORCE MATRIX TO BE CALCULATED, (LIMIT=10) **



 EITHER ADD 'LET' OR REDUCE GRADIENT
 USING 'TS' OR OTHER GEOMETRY OPTIMIZER



 TOTAL CPU TIME:             1.30 SECONDS

 == MOPAC DONE ==
