 *******************************************************************************
 ** Site#:  958            For non-commercial use only         Version 9.015L **
 *******************************************************************************
 ** Cite this work as: MOPAC2009, James J. P. Stewart, Stewart Computational  **
 ** Chemistry, Version 9.015L web: HTTP://OpenMOPAC.net                       **
 *******************************************************************************
 **                                                                           **
 **                                MOPAC2009                                  **
 **                                                                           **
 *******************************************************************************

                            PM6 CALCULATION RESULTS


 *******************************************************************************
 *  CALCULATION DONE:                                Tue Sep  6 16:24:40 2011  *
 *  PM6      - The PM6 Hamiltonian to be used
 *
 *
 *
 *                 CHARGE ON SYSTEM =    -1
 *
 *
 *
 *  EPS= 78.400
 *  RSOLV=  1.300
 *  LET      - OVERRIDE SOME SAFETY CHECKS
 *  XYZ      - CARTESIAN COORDINATE SYSTEM TO BE USED
 *  T=       - A TIME OF  0.3E+08 SECONDS REQUESTED
 *  DUMP=N   - RESTART FILE WRITTEN EVERY  4320.000 SECONDS
 *  DDMIN=   - MINIMUM TRUST RADIUS  0.000 ANG/RAD
 *  GNORM=   - EXIT WHEN GRADIENT NORM DROPS BELOW .150    
 *  RELSCF   - DEFAULT SCF CRITERION MULTIPLIED BY   0.100    
 *             (DEFAULT SCFCRT= 0.00010)
 *  SYBYL    - OUTPUT SYBYL FILE
 *  MULLIK   - THE MULLIKEN ANALYSIS TO BE PERFORMED
 *******************************************************************************
 PM6 T=31535772 DUMP=4320 XYZ EPS=78.40 RSOLV=1.30 MULLIK SYBYL +
 CHARGE=-1 RELSCF=0.1 LET DDMIN=0.0 GNORM=0.15
 SJ000001113-1_T001S001I001C01: Geometry optimization step

   ATOM   CHEMICAL          X               Y              Z
  NUMBER   SYMBOL      (ANGSTROMS)     (ANGSTROMS)    (ANGSTROMS)
 
     1       C          0.0020000  *   -0.004000  *    0.001000  *
     2       C          1.2280000  *   -0.699000  *    0.030000  *
     3       C          2.4530000  *   -0.013000  *    0.067000  *
     4       C          3.6180000  *   -0.716000  *    0.095000  *
     5       C          3.6150000  *   -2.110000  *    0.087000  *
     6       C          2.4480000  *   -2.808000  *    0.052000  *
     7       C          1.2240000  *   -2.116000  *    0.023000  *
     8       C          0.0010000  *   -2.806000  *   -0.013000  *
     9       C         -1.1710000  *   -2.112000  *   -0.040000  *
    10       C         -1.1820000  *   -0.718000  *   -0.028000  *
    11       H          2.4700000  *    1.067000  *    0.072000  *
    12       H          4.5590000  *   -0.186000  *    0.122000  *
    13       H          4.5540000  *   -2.644000  *    0.110000  *
    14       H          2.4610000  *   -3.888000  *    0.046000  *
    15       H         -2.1070000  *   -2.651000  *   -0.067000  *
    16       S         -0.0180000  *   -4.568000  *   -0.021000  *
    17       O          0.1130000  *   -4.995000  *    1.363000  *
    18       O         -1.2900000  *   -4.971000  *   -0.600000  *
    19       O          1.1110000  *   -4.995000  *   -0.834000  *
    20       O         -2.3690000  *   -0.053000  *   -0.056000  *
    21       H         -2.7360000  *    0.132000  *    0.820000  *
    22       N         -0.0170000  *    1.393000  *    0.007000  *
    23       H          0.8160000  *    1.889000  *    0.032000  *
    24       H         -0.8630000  *    1.867000  *   -0.017000  *
 


          CARTESIAN COORDINATES 

    NO.       ATOM         X         Y         Z

     1         C        0.0020   -0.0040    0.0010
     2         C        1.2280   -0.6990    0.0300
     3         C        2.4530   -0.0130    0.0670
     4         C        3.6180   -0.7160    0.0950
     5         C        3.6150   -2.1100    0.0870
     6         C        2.4480   -2.8080    0.0520
     7         C        1.2240   -2.1160    0.0230
     8         C        0.0010   -2.8060   -0.0130
     9         C       -1.1710   -2.1120   -0.0400
    10         C       -1.1820   -0.7180   -0.0280
    11         H        2.4700    1.0670    0.0720
    12         H        4.5590   -0.1860    0.1220
    13         H        4.5540   -2.6440    0.1100
    14         H        2.4610   -3.8880    0.0460
    15         H       -2.1070   -2.6510   -0.0670
    16         S       -0.0180   -4.5680   -0.0210
    17         O        0.1130   -4.9950    1.3630
    18         O       -1.2900   -4.9710   -0.6000
    19         O        1.1110   -4.9950   -0.8340
    20         O       -2.3690   -0.0530   -0.0560
    21         H       -2.7360    0.1320    0.8200
    22         N       -0.0170    1.3930    0.0070
    23         H        0.8160    1.8890    0.0320
    24         H       -0.8630    1.8670   -0.0170

 General Reference for PM6:
 "Optimization of Parameters for Semiempirical Methods V: Modification of NDDO Approximations
 and Application to 70 Elements", J. J. P. Stewart, J. Mol. Mod., 13, 1173-1213 (2007)
 URL: http://www.springerlink.com/content/ar33482301010477/fulltext.pdf

           Empirical Formula: C10 H8 N O4 S  =    24 atoms



      MOLECULAR POINT GROUP   :   C1  


      RHF CALCULATION, NO. OF DOUBLY OCCUPIED LEVELS =   42

      Geometry optimization using EF
  SCF CRITERION =    0.1000E-04

          DIAGONAL MATRIX USED AS START HESSIAN

 CYCLE:     1 TIME:   0.116 TIME LEFT: 16.53W  GRAD.:   154.878 HEAT:-235.2043
 CYCLE:     2 TIME:   0.054 TIME LEFT: 16.53W  GRAD.:   225.001 HEAT:-235.5701
 CYCLE:     3 TIME:   0.048 TIME LEFT: 16.53W  GRAD.:   242.351 HEAT:-229.7084
 CYCLE:     4 TIME:   0.053 TIME LEFT: 16.53W  GRAD.:   158.898 HEAT:-238.9854
 CYCLE:     5 TIME:   0.050 TIME LEFT: 16.53W  GRAD.:   286.390 HEAT:-228.2144
 CYCLE:     6 TIME:   0.051 TIME LEFT: 16.53W  GRAD.:   206.190 HEAT:-236.9316
 CYCLE:     7 TIME:   0.049 TIME LEFT: 16.53W  GRAD.:   230.029 HEAT:-234.8586
 CYCLE:     8 TIME:   0.050 TIME LEFT: 16.53W  GRAD.:   256.792 HEAT:-230.7539
 CYCLE:     9 TIME:   0.049 TIME LEFT: 16.53W  GRAD.:   226.428 HEAT:-234.7212
 CYCLE:    10 TIME:   0.050 TIME LEFT: 16.53W  GRAD.:   241.421 HEAT:-234.2870
 CYCLE:    11 TIME:   0.049 TIME LEFT: 16.53W  GRAD.:   251.841 HEAT:-232.1738
 CYCLE:    12 TIME:   0.050 TIME LEFT: 16.53W  GRAD.:   287.015 HEAT:-229.6732
 CYCLE:    13 TIME:   0.049 TIME LEFT: 16.53W  GRAD.:   213.745 HEAT:-236.1643
 CYCLE:    14 TIME:   0.049 TIME LEFT: 16.53W  GRAD.:   247.187 HEAT:-231.8714
 CYCLE:    15 TIME:   0.050 TIME LEFT: 16.53W  GRAD.:   203.179 HEAT:-236.1919
 CYCLE:    16 TIME:   0.048 TIME LEFT: 16.53W  GRAD.:   230.071 HEAT:-234.9611
 CYCLE:    17 TIME:   0.049 TIME LEFT: 16.53W  GRAD.:   285.332 HEAT:-229.0124
 CYCLE:    18 TIME:   0.051 TIME LEFT: 16.53W  GRAD.:   201.376 HEAT:-236.9283
 CYCLE:    19 TIME:   0.052 TIME LEFT: 16.53W  GRAD.:   213.503 HEAT:-235.5907
 CYCLE:    20 TIME:   0.048 TIME LEFT: 16.53W  GRAD.:   194.335 HEAT:-236.7750
 CYCLE:    21 TIME:   0.053 TIME LEFT: 16.53W  GRAD.:   242.703 HEAT:-234.6225
 CYCLE:    22 TIME:   0.049 TIME LEFT: 16.53W  GRAD.:   156.766 HEAT:-240.5807
 CYCLE:    23 TIME:   0.049 TIME LEFT: 16.53W  GRAD.:   236.168 HEAT:-233.1188
 CYCLE:    24 TIME:   0.050 TIME LEFT: 16.53W  GRAD.:   199.152 HEAT:-236.1464
 CYCLE:    25 TIME:   0.049 TIME LEFT: 16.53W  GRAD.:   203.679 HEAT:-237.4050
 CYCLE:    26 TIME:   0.048 TIME LEFT: 16.53W  GRAD.:   191.029 HEAT:-236.0967
 CYCLE:    27 TIME:   0.053 TIME LEFT: 16.53W  GRAD.:   170.480 HEAT:-239.3036
 CYCLE:    28 TIME:   0.049 TIME LEFT: 16.53W  GRAD.:   168.334 HEAT:-237.4294
 CYCLE:    29 TIME:   0.050 TIME LEFT: 16.53W  GRAD.:   145.638 HEAT:-241.3215
 CYCLE:    30 TIME:   0.049 TIME LEFT: 16.53W  GRAD.:   170.422 HEAT:-238.1476
 CYCLE:    31 TIME:   0.048 TIME LEFT: 16.53W  GRAD.:   183.205 HEAT:-237.2791
 CYCLE:    32 TIME:   0.049 TIME LEFT: 16.53W  GRAD.:   174.810 HEAT:-238.5300
 CYCLE:    33 TIME:   0.048 TIME LEFT: 16.53W  GRAD.:   158.433 HEAT:-239.6663
 CYCLE:    34 TIME:   0.048 TIME LEFT: 16.53W  GRAD.:   190.929 HEAT:-237.1453
 CYCLE:    35 TIME:   0.053 TIME LEFT: 16.53W  GRAD.:   161.594 HEAT:-239.2416
 CYCLE:    36 TIME:   0.049 TIME LEFT: 16.53W  GRAD.:   187.085 HEAT:-237.5088
 CYCLE:    37 TIME:   0.048 TIME LEFT: 16.53W  GRAD.:   138.593 HEAT:-240.7108
 CYCLE:    38 TIME:   0.048 TIME LEFT: 16.53W  GRAD.:   186.091 HEAT:-238.4149
 CYCLE:    39 TIME:   0.049 TIME LEFT: 16.53W  GRAD.:   105.922 HEAT:-244.6770
 CYCLE:    40 TIME:   0.048 TIME LEFT: 16.53W  GRAD.:   224.977 HEAT:-232.7359
 CYCLE:    41 TIME:   0.049 TIME LEFT: 16.53W  GRAD.:    46.015 HEAT:-247.7579
 CYCLE:    42 TIME:   0.047 TIME LEFT: 16.53W  GRAD.:   185.369 HEAT:-235.0822
 CYCLE:    43 TIME:   0.051 TIME LEFT: 16.53W  GRAD.:    41.480 HEAT:-247.6177
 CYCLE:    44 TIME:   0.048 TIME LEFT: 16.53W  GRAD.:   191.056 HEAT:-234.3125
 CYCLE:    45 TIME:   0.051 TIME LEFT: 16.53W  GRAD.:    20.027 HEAT:-248.2372
 CYCLE:    46 TIME:   0.048 TIME LEFT: 16.53W  GRAD.:    58.212 HEAT:-246.5735
 CYCLE:    47 TIME:   0.048 TIME LEFT: 16.53W  GRAD.:     6.625 HEAT:-248.6374
 CYCLE:    48 TIME:   0.044 TIME LEFT: 16.53W  GRAD.:    16.670 HEAT:-248.3217
 CYCLE:    49 TIME:   0.045 TIME LEFT: 16.53W  GRAD.:     2.084 HEAT:-248.5032
 CYCLE:    50 TIME:   0.046 TIME LEFT: 16.53W  GRAD.:     3.106 HEAT:-248.6706
 CYCLE:    51 TIME:   0.044 TIME LEFT: 16.53W  GRAD.:     1.519 HEAT:-248.6716
 CYCLE:    52 TIME:   0.048 TIME LEFT: 16.53W  GRAD.:     1.970 HEAT:-248.5113
 CYCLE:    53 TIME:   0.045 TIME LEFT: 16.53W  GRAD.:     3.642 HEAT:-248.6587
 CYCLE:    54 TIME:   0.045 TIME LEFT: 16.53W  GRAD.:     2.189 HEAT:-248.6712
 CYCLE:    55 TIME:   0.046 TIME LEFT: 16.53W  GRAD.:     1.863 HEAT:-248.7475
 CYCLE:    56 TIME:   0.046 TIME LEFT: 16.53W  GRAD.:     2.050 HEAT:-248.6868
 CYCLE:    57 TIME:   0.048 TIME LEFT: 16.53W  GRAD.:     1.814 HEAT:-248.7132
 CYCLE:    58 TIME:   0.048 TIME LEFT: 16.53W  GRAD.:     2.483 HEAT:-248.6312
 CYCLE:    59 TIME:   0.048 TIME LEFT: 16.53W  GRAD.:     2.459 HEAT:-248.6438
 CYCLE:    60 TIME:   0.048 TIME LEFT: 16.53W  GRAD.:     1.489 HEAT:-248.7294
 CYCLE:    61 TIME:   0.048 TIME LEFT: 16.53W  GRAD.:     1.159 HEAT:-248.7270
 CYCLE:    62 TIME:   0.049 TIME LEFT: 16.53W  GRAD.:     1.311 HEAT:-248.7515
 CYCLE:    63 TIME:   0.050 TIME LEFT: 16.53W  GRAD.:     1.177 HEAT:-248.7489
 CYCLE:    64 TIME:   0.047 TIME LEFT: 16.53W  GRAD.:     1.185 HEAT:-248.6839
 CYCLE:    65 TIME:   0.048 TIME LEFT: 16.53W  GRAD.:     3.192 HEAT:-248.7148
 CYCLE:    66 TIME:   0.047 TIME LEFT: 16.53W  GRAD.:     1.725 HEAT:-248.7030
 CYCLE:    67 TIME:   0.045 TIME LEFT: 16.53W  GRAD.:     1.790 HEAT:-248.7832
 CYCLE:    68 TIME:   0.047 TIME LEFT: 16.53W  GRAD.:     1.866 HEAT:-248.8538
 CYCLE:    69 TIME:   0.047 TIME LEFT: 16.53W  GRAD.:     1.036 HEAT:-248.8048
 CYCLE:    70 TIME:   0.048 TIME LEFT: 16.53W  GRAD.:     0.782 HEAT:-248.8158
 CYCLE:    71 TIME:   0.049 TIME LEFT: 16.53W  GRAD.:     0.582 HEAT:-248.8551
 CYCLE:    72 TIME:   0.046 TIME LEFT: 16.53W  GRAD.:     0.505 HEAT:-248.8566
 CYCLE:    73 TIME:   0.051 TIME LEFT: 16.53W  GRAD.:     3.183 HEAT:-248.8480
 CYCLE:    74 TIME:   0.047 TIME LEFT: 16.53W  GRAD.:     2.582 HEAT:-248.9469
 CYCLE:    75 TIME:   0.045 TIME LEFT: 16.53W  GRAD.:     1.056 HEAT:-248.9551
 CYCLE:    76 TIME:   0.048 TIME LEFT: 16.53W  GRAD.:     0.702 HEAT:-248.9630
 CYCLE:    77 TIME:   0.047 TIME LEFT: 16.53W  GRAD.:     3.435 HEAT:-248.8746
 CYCLE:    78 TIME:   0.046 TIME LEFT: 16.53W  GRAD.:     1.054 HEAT:-248.8684
 CYCLE:    79 TIME:   0.045 TIME LEFT: 16.53W  GRAD.:     0.552 HEAT:-248.8730
 CYCLE:    80 TIME:   0.046 TIME LEFT: 16.53W  GRAD.:     0.558 HEAT:-248.8784
 CYCLE:    81 TIME:   0.048 TIME LEFT: 16.53W  GRAD.:     0.796 HEAT:-248.8786
 CYCLE:    82 TIME:   0.048 TIME LEFT: 16.53W  GRAD.:     0.905 HEAT:-248.7950
 CYCLE:    83 TIME:   0.047 TIME LEFT: 16.53W  GRAD.:     0.900 HEAT:-248.8427
 CYCLE:    84 TIME:   0.048 TIME LEFT: 16.53W  GRAD.:     1.302 HEAT:-249.0076
 CYCLE:    85 TIME:   0.047 TIME LEFT: 16.53W  GRAD.:     1.870 HEAT:-249.1172
 CYCLE:    86 TIME:   0.046 TIME LEFT: 16.53W  GRAD.:     0.679 HEAT:-249.1153
 CYCLE:    87 TIME:   0.045 TIME LEFT: 16.53W  GRAD.:     0.710 HEAT:-249.1073
 CYCLE:    88 TIME:   0.051 TIME LEFT: 16.53W  GRAD.:     3.232 HEAT:-249.1349
 CYCLE:    89 TIME:   0.045 TIME LEFT: 16.53W  GRAD.:     1.498 HEAT:-249.1768
 CYCLE:    90 TIME:   0.048 TIME LEFT: 16.53W  GRAD.:     0.801 HEAT:-249.1857
 CYCLE:    91 TIME:   0.048 TIME LEFT: 16.53W  GRAD.:     1.479 HEAT:-249.1817
 CYCLE:    92 TIME:   0.047 TIME LEFT: 16.53W  GRAD.:     0.957 HEAT:-249.1542
 CYCLE:    93 TIME:   0.048 TIME LEFT: 16.53W  GRAD.:     1.140 HEAT:-249.2099
 CYCLE:    94 TIME:   0.045 TIME LEFT: 16.53W  GRAD.:     1.036 HEAT:-249.1449
 CYCLE:    95 TIME:   0.047 TIME LEFT: 16.53W  GRAD.:     1.462 HEAT:-249.1433
 CYCLE:    96 TIME:   0.047 TIME LEFT: 16.53W  GRAD.:     1.761 HEAT:-249.0286
 CYCLE:    97 TIME:   0.046 TIME LEFT: 16.53W  GRAD.:     0.982 HEAT:-249.1027
 CYCLE:    98 TIME:   0.045 TIME LEFT: 16.53W  GRAD.:     0.569 HEAT:-249.1030
 CYCLE:    99 TIME:   0.046 TIME LEFT: 16.53W  GRAD.:     0.471 HEAT:-249.1048
 CYCLE:   100 TIME:   0.045 TIME LEFT: 16.53W  GRAD.:     0.585 HEAT:-249.1273
 CYCLE:   101 TIME:   0.045 TIME LEFT: 16.53W  GRAD.:     0.333 HEAT:-249.1269
 CYCLE:   102 TIME:   0.047 TIME LEFT: 16.53W  GRAD.:     0.277 HEAT:-249.1149
 CYCLE:   103 TIME:   0.045 TIME LEFT: 16.53W  GRAD.:     0.340 HEAT:-249.1370
 CYCLE:   104 TIME:   0.045 TIME LEFT: 16.53W  GRAD.:     0.186 HEAT:-249.1314
 CYCLE:   105 TIME:   0.045 TIME LEFT: 16.53W  GRAD.:     0.513 HEAT:-249.1307
 CYCLE:   106 TIME:   0.045 TIME LEFT: 16.53W  GRAD.:     0.378 HEAT:-249.1324
 CYCLE:   107 TIME:   0.047 TIME LEFT: 16.53W  GRAD.:     1.986 HEAT:-249.3266
 CYCLE:   108 TIME:   0.045 TIME LEFT: 16.53W  GRAD.:     0.526 HEAT:-249.1143
 CYCLE:   109 TIME:   0.046 TIME LEFT: 16.53W  GRAD.:     0.440 HEAT:-249.1356
 CYCLE:   110 TIME:   0.046 TIME LEFT: 16.53W  GRAD.:     0.235 HEAT:-249.1158
 CYCLE:   111 TIME:   0.043 TIME LEFT: 16.53W  GRAD.:     0.177 HEAT:-249.1165
 CYCLE:   112 TIME:   0.048 TIME LEFT: 16.53W  GRAD.:     0.458 HEAT:-249.1320
 CYCLE:   113 TIME:   0.045 TIME LEFT: 16.53W  GRAD.:     0.218 HEAT:-249.1455
 CYCLE:   114 TIME:   0.045 TIME LEFT: 16.53W  GRAD.:     0.305 HEAT:-249.1152
 CYCLE:   115 TIME:   0.044 TIME LEFT: 16.53W  GRAD.:     0.194 HEAT:-249.1166
 CYCLE:   116 TIME:   0.048 TIME LEFT: 16.53W  GRAD.:     0.459 HEAT:-249.1322
 CYCLE:   117 TIME:   0.045 TIME LEFT: 16.53W  GRAD.:     0.224 HEAT:-249.1472
 CYCLE:   118 TIME:   0.045 TIME LEFT: 16.53W  GRAD.:     0.306 HEAT:-249.1176
 CYCLE:   119 TIME:   0.044 TIME LEFT: 16.53W  GRAD.:     0.192 HEAT:-249.1480
 CYCLE:   120 TIME:   0.044 TIME LEFT: 16.53W  GRAD.:     0.208 HEAT:-249.1184
 CYCLE:   121 TIME:   0.043 TIME LEFT: 16.53W  GRAD.:     0.175 HEAT:-249.1185
 CYCLE:   122 TIME:   0.045 TIME LEFT: 16.53W  GRAD.:     0.357 HEAT:-249.1529
 CYCLE:   123 TIME:   0.045 TIME LEFT: 16.53W  GRAD.:     0.335 HEAT:-249.1532
 CYCLE:   124 TIME:   0.045 TIME LEFT: 16.53W  GRAD.:     0.453 HEAT:-249.1103
 CYCLE:   125 TIME:   0.044 TIME LEFT: 16.53W  GRAD.:     0.264 HEAT:-249.1443
 CYCLE:   126 TIME:   0.044 TIME LEFT: 16.53W  GRAD.:     0.209 HEAT:-249.1248
 CYCLE:   127 TIME:   0.044 TIME LEFT: 16.53W  GRAD.:     0.153 HEAT:-249.1278
 CYCLE:   128 TIME:   0.045 TIME LEFT: 16.53W  GRAD.:     0.150 HEAT:-249.1224
 CYCLE:   129 TIME:   0.044 TIME LEFT: 16.53W  GRAD.:     0.127 HEAT:-249.1228

     RMS GRADIENT =  0.12664  IS LESS THAN CUTOFF =  0.15000



 -------------------------------------------------------------------------------
 PM6 T=31535772 DUMP=4320 XYZ EPS=78.40 RSOLV=1.30 MULLIK SYBYL +
 CHARGE=-1 RELSCF=0.1 LET DDMIN=0.0 GNORM=0.15
 SJ000001113-1_T001S001I001C01: Geometry optimization step



     GEOMETRY OPTIMISED USING EIGENVECTOR FOLLOWING (EF).     
     SCF FIELD WAS ACHIEVED                                   


                               PM6     CALCULATION
                                                       MOPAC2009 (Version: 9.015L)
                                                       Tue Sep  6 16:24:47 2011




          FINAL HEAT OF FORMATION =       -249.12280 KCAL =   -1042.32981 KJ
          VAN DER WAALS AREA      =        226.33 SQUARE ANGSTROMS


          TOTAL ENERGY            =      -2858.28807 EV
          ELECTRONIC ENERGY       =      -3806.52168 EV  POINT GROUP:     C1  
          CORE-CORE REPULSION     =        948.23361 EV
          DIELECTRIC ENERGY       =         -4.66483 EV
          COSMO AREA              =        226.33 SQUARE ANGSTROMS
          COSMO VOLUME            =        242.43 CUBIC ANGSTROMS

          IONIZATION POTENTIAL    =          8.577324 EV
          HOMO LUMO ENERGIES (EV) =         -8.577 -0.909
          NO. OF FILLED LEVELS    =         42
          MOLECULAR WEIGHT        =        238.238

          MOLECULAR DIMENSIONS (Angstroms)

            Atom       Atom       Distance
            H    12    O    18     7.80224
            H    24    H    13     6.99089
            O    19    O    17     2.44910


          SCF CALCULATIONS        =        131
          COMPUTATION TIME        =          6.232 SECONDS




   ATOM   CHEMICAL          X               Y              Z
  NUMBER   SYMBOL      (ANGSTROMS)     (ANGSTROMS)    (ANGSTROMS)
 
     1       C         -0.0002308  *    0.026616  *   -0.010228  *
     2       C          1.2540581  *   -0.691454  *    0.059515  *
     3       C          2.5002632  *    0.004686  *    0.123619  *
     4       C          3.6885715  *   -0.676962  *    0.198167  *
     5       C          3.6867484  *   -2.099059  *    0.213033  *
     6       C          2.5064560  *   -2.796706  *    0.146954  *
     7       C          1.2472714  *   -2.117409  *    0.062209  *
     8       C          0.0107017  *   -2.823622  *   -0.021482  *
     9       C         -1.1886675  *   -2.130991  *   -0.104818  *
    10       C         -1.1926032  *   -0.735695  *   -0.107730  *
    11       H          2.4999718  *    1.099008  *    0.111173  *
    12       H          4.6397813  *   -0.146027  *    0.246840  *
    13       H          4.6424382  *   -2.626379  *    0.276932  *
    14       H          2.5310719  *   -3.889444  *    0.164155  *
    15       H         -2.1506911  *   -2.657931  *   -0.175525  *
    16       S         -0.0441097  *   -4.531639  *   -0.036273  *
    17       O          0.6257632  *   -5.078163  *    1.192448  *
    18       O         -1.4830654  *   -4.972090  *   -0.061116  *
    19       O          0.6582711  *   -5.049775  *   -1.260232  *
    20       O         -2.3991950  *   -0.065988  *   -0.290898  *
    21       H         -2.7905208  *    0.170530  *    0.600309  *
    22       N         -0.0702911  *    1.393390  *    0.096863  *
    23       H          0.7637476  *    1.960532  *   -0.025625  *
    24       H         -0.9402894  *    1.862879  *   -0.147211  *

           Empirical Formula: C10 H8 N O4 S  =    24 atoms



      MOLECULAR POINT GROUP   :   C1  


                  EIGENVALUES  
 -32.72121 -30.94597 -30.21560 -30.11942 -28.97279 -27.01468 -26.71096 -26.46361
 -25.74970 -25.10399 -22.47399 -22.12148 -21.46757 -19.53150 -18.76124 -18.34774
 -18.14424 -16.62347 -16.38145 -16.20553 -15.46691 -15.19665 -15.03691 -14.76927
 -14.68520 -14.31302 -14.11158 -13.84204 -12.72510 -12.45862 -12.39922 -12.15932
 -12.13191 -12.08090 -11.62188 -11.52815 -11.45205 -11.14670 -11.08667 -10.20290
  -9.73860  -8.57732  -0.90872  -0.29927   0.42008   1.34675   1.35708   2.05668
   2.43026   2.45978   3.32263   3.50578   3.65604   3.97400   4.15191   4.27526
   4.32948   4.43767   4.51405   4.59210   4.74212   4.96263   5.15696   5.39977
   5.42260   5.58750   5.70011   5.82034   5.97940   6.08544   6.14133   6.61293
  10.14112  10.18393  10.18941  10.71034  10.71241


              NET ATOMIC CHARGES AND DIPOLE CONTRIBUTIONS

  ATOM NO.   TYPE          CHARGE      No. of ELECS.   s-Pop       p-Pop       d-Pop       
    1          C           0.275983        3.7240     1.09091     2.63311
    2          C          -0.236936        4.2369     1.08971     3.14723
    3          C          -0.058756        4.0588     1.10757     2.95118
    4          C          -0.239641        4.2396     1.10839     3.13125
    5          C          -0.034512        4.0345     1.11152     2.92299
    6          C          -0.307415        4.3074     1.11514     3.19228
    7          C           0.278060        3.7219     1.07368     2.64826
    8          C          -0.733385        4.7334     1.13882     3.59457
    9          C           0.090849        3.9092     1.10907     2.80008
   10          C          -0.072667        4.0727     1.06647     3.00619
   11          H           0.158035        0.8420     0.84197
   12          H           0.172336        0.8277     0.82766
   13          H           0.159017        0.8410     0.84098
   14          H           0.184158        0.8158     0.81584
   15          H           0.173762        0.8262     0.82624
   16          S           2.616706        3.3833     1.15555     1.88801     0.33974
   17          O          -1.127905        7.1279     1.89289     5.23502
   18          O          -1.132290        7.1323     1.89349     5.23880
   19          O          -1.131589        7.1316     1.89316     5.23843
   20          O          -0.540634        6.5406     1.81387     4.72676
   21          H           0.360757        0.6392     0.63924
   22          N          -0.437195        5.4372     1.46891     3.96829
   23          H           0.289125        0.7109     0.71087
   24          H           0.294138        0.7059     0.70586
 DIPOLE           X         Y         Z       TOTAL
 POINT-CHG.     4.711    22.596     1.693    23.144
 HYBRID        -0.446     0.997    -0.181     1.107
 SUM            4.265    23.594     1.512    24.024


          CARTESIAN COORDINATES 

    NO.       ATOM               X         Y         Z

     1         C                 -0.0002    0.0266   -0.0102
     2         C                  1.2541   -0.6915    0.0595
     3         C                  2.5003    0.0047    0.1236
     4         C                  3.6886   -0.6770    0.1982
     5         C                  3.6867   -2.0991    0.2130
     6         C                  2.5065   -2.7967    0.1470
     7         C                  1.2473   -2.1174    0.0622
     8         C                  0.0107   -2.8236   -0.0215
     9         C                 -1.1887   -2.1310   -0.1048
    10         C                 -1.1926   -0.7357   -0.1077
    11         H                  2.5000    1.0990    0.1112
    12         H                  4.6398   -0.1460    0.2468
    13         H                  4.6424   -2.6264    0.2769
    14         H                  2.5311   -3.8894    0.1642
    15         H                 -2.1507   -2.6579   -0.1755
    16         S                 -0.0441   -4.5316   -0.0363
    17         O                  0.6258   -5.0782    1.1924
    18         O                 -1.4831   -4.9721   -0.0611
    19         O                  0.6583   -5.0498   -1.2602
    20         O                 -2.3992   -0.0660   -0.2909
    21         H                 -2.7905    0.1705    0.6003
    22         N                 -0.0703    1.3934    0.0969
    23         H                  0.7637    1.9605   -0.0256
    24         H                 -0.9403    1.8629   -0.1472


          ATOMIC ORBITAL ELECTRON POPULATIONS

   1.09091   0.95798   0.85335   0.82178   1.08971   0.96733   0.99835   1.18155
   1.10757   0.95238   1.06397   0.93483   1.10839   1.05956   1.00850   1.06320
   1.11152   1.03926   0.98293   0.90080   1.11514   0.99154   1.10287   1.09787
   1.07368   0.90060   0.91065   0.83700   1.13882   1.05442   1.16730   1.37285
   1.10907   1.01539   0.96629   0.81840   1.06647   0.82263   0.93332   1.25024
   0.84197   0.82766   0.84098   0.81584   0.82624   1.15555   0.60877   0.66536
   0.61388   0.08229   0.08509   0.08425   0.04722   0.04089   1.89289   1.80263
   1.84168   1.59071   1.89349   1.47926   1.86398   1.89556   1.89316   1.79529
   1.84909   1.59405   1.81387   1.44054   1.80311   1.48311   0.63924   1.46891
   1.22506   1.09703   1.64620   0.71087   0.70586

           MULLIKEN POPULATION ANALYSIS



        MULLIKEN POPULATIONS AND CHARGES

      NO.  ATOM   POPULATION      CHARGE
        1    C     3.685849      0.314151
        2    C     4.258826     -0.258826
        3    C     4.095261     -0.095261
        4    C     4.296564     -0.296564
        5    C     4.075308     -0.075308
        6    C     4.372948     -0.372948
        7    C     3.683063      0.316937
        8    C     4.835967     -0.835967
        9    C     3.926381      0.073619
       10    C     4.072663     -0.072663
       11    H     0.794230      0.205770
       12    H     0.774387      0.225613
       13    H     0.791428      0.208572
       14    H     0.760169      0.239831
       15    H     0.774455      0.225545
       16    S     3.196693      2.803307
       17    O     7.171039     -1.171039
       18    O     7.175170     -1.175170
       19    O     7.174668     -1.174668
       20    O     6.584020     -0.584020
       21    H     0.607442      0.392558
       22    N     5.616061     -0.616061
       23    H     0.641550      0.358450
       24    H     0.635859      0.364141



 TOTAL CPU TIME:             6.24 SECONDS

 == MOPAC DONE ==
 *******************************************************************************
 ** Site#:  958            For non-commercial use only         Version 9.015L **
 *******************************************************************************
 ** Cite this work as: MOPAC2009, James J. P. Stewart, Stewart Computational  **
 ** Chemistry, Version 9.015L web: HTTP://OpenMOPAC.net                       **
 *******************************************************************************
 **                                                                           **
 **                                MOPAC2009                                  **
 **                                                                           **
 *******************************************************************************

                            PM6 CALCULATION RESULTS


 *******************************************************************************
 *  CALCULATION DONE:                                Tue Sep  6 16:24:47 2011  *
 *  PM6      - The PM6 Hamiltonian to be used
 *  GEO-OK   - OVERRIDE INTERATOMIC DISTANCE CHECK
 *
 *
 *
 *                 CHARGE ON SYSTEM =    -1
 *
 *
 *
 *  EPS= 78.400
 *  RSOLV=  1.300
 *  OLDGEO   - PREVIOUS GEOMETRY TO BE USED
 *  T=       - A TIME OF 172800.0 SECONDS REQUESTED
 *  DUMP=N   - RESTART FILE WRITTEN EVERY  4320.000 SECONDS
 *  RELSCF   - DEFAULT SCF CRITERION MULTIPLIED BY   0.100    
 *             (DEFAULT SCFCRT= 0.00010)
 *  THERMO   - THERMODYNAMIC QUANTITIES TO BE CALCULATED
 *******************************************************************************
 PM6 DUMP=4320 RELSCF=0.1 THERMO EPS=78.40 RSOLV=1.30 +
 OLDGEO GEO-OK CHARGE=-1
 SJ000001113-1_T001S001I001C01: Free energy calculation

   ATOM   CHEMICAL          X               Y              Z
  NUMBER   SYMBOL      (ANGSTROMS)     (ANGSTROMS)    (ANGSTROMS)
 
     1       C         -0.0002308  *    0.026616  *   -0.010228  *
     2       C          1.2540581  *   -0.691454  *    0.059515  *
     3       C          2.5002632  *    0.004686  *    0.123619  *
     4       C          3.6885715  *   -0.676962  *    0.198167  *
     5       C          3.6867484  *   -2.099059  *    0.213033  *
     6       C          2.5064560  *   -2.796706  *    0.146954  *
     7       C          1.2472714  *   -2.117409  *    0.062209  *
     8       C          0.0107017  *   -2.823622  *   -0.021482  *
     9       C         -1.1886675  *   -2.130991  *   -0.104818  *
    10       C         -1.1926032  *   -0.735695  *   -0.107730  *
    11       H          2.4999718  *    1.099008  *    0.111173  *
    12       H          4.6397813  *   -0.146027  *    0.246840  *
    13       H          4.6424382  *   -2.626379  *    0.276932  *
    14       H          2.5310719  *   -3.889444  *    0.164155  *
    15       H         -2.1506911  *   -2.657931  *   -0.175525  *
    16       S         -0.0441097  *   -4.531639  *   -0.036273  *
    17       O          0.6257632  *   -5.078163  *    1.192448  *
    18       O         -1.4830654  *   -4.972090  *   -0.061116  *
    19       O          0.6582711  *   -5.049775  *   -1.260232  *
    20       O         -2.3991950  *   -0.065988  *   -0.290898  *
    21       H         -2.7905208  *    0.170530  *    0.600309  *
    22       N         -0.0702911  *    1.393390  *    0.096863  *
    23       H          0.7637476  *    1.960532  *   -0.025625  *
    24       H         -0.9402894  *    1.862879  *   -0.147211  *
 


          CARTESIAN COORDINATES 

    NO.       ATOM         X         Y         Z

     1         C       -0.0002    0.0266   -0.0102
     2         C        1.2541   -0.6915    0.0595
     3         C        2.5003    0.0047    0.1236
     4         C        3.6886   -0.6770    0.1982
     5         C        3.6867   -2.0991    0.2130
     6         C        2.5065   -2.7967    0.1470
     7         C        1.2473   -2.1174    0.0622
     8         C        0.0107   -2.8236   -0.0215
     9         C       -1.1887   -2.1310   -0.1048
    10         C       -1.1926   -0.7357   -0.1077
    11         H        2.5000    1.0990    0.1112
    12         H        4.6398   -0.1460    0.2468
    13         H        4.6424   -2.6264    0.2769
    14         H        2.5311   -3.8894    0.1642
    15         H       -2.1507   -2.6579   -0.1755
    16         S       -0.0441   -4.5316   -0.0363
    17         O        0.6258   -5.0782    1.1924
    18         O       -1.4831   -4.9721   -0.0611
    19         O        0.6583   -5.0498   -1.2602
    20         O       -2.3992   -0.0660   -0.2909
    21         H       -2.7905    0.1705    0.6003
    22         N       -0.0703    1.3934    0.0969
    23         H        0.7637    1.9605   -0.0256
    24         H       -0.9403    1.8629   -0.1472

 General Reference for PM6:
 "Optimization of Parameters for Semiempirical Methods V: Modification of NDDO Approximations
 and Application to 70 Elements", J. J. P. Stewart, J. Mol. Mod., 13, 1173-1213 (2007)
 URL: http://www.springerlink.com/content/ar33482301010477/fulltext.pdf

           Empirical Formula: C10 H8 N O4 S  =    24 atoms



      MOLECULAR POINT GROUP   :   C1  


      RHF CALCULATION, NO. OF DOUBLY OCCUPIED LEVELS =   42

  SCF CRITERION =    0.1000E-04


          HEAT OF FORMATION =    -249.112066 KCALS/MOLE


          INTERNAL COORDINATE DERIVATIVES

   NUMBER  ATOM       BOND         ANGLE      DIHEDRAL

     1       C
     2       C      0.231157
     3       C      1.047387     0.150302
     4       C     -0.471841     0.366432    -0.018005
     5       C      0.063939    -0.163997     0.003050
     6       C      0.086022     0.027263    -0.006757
     7       C     -0.013274     0.121746    -0.006669
     8       C     -0.179000    -0.090121    -0.002979
     9       C      0.286823    -0.473857     0.004810
    10       C      0.937753    -0.352686     0.011353
    11       H     -0.881340     0.589976     0.063559
    12       H      0.032663    -1.040356     0.013818
    13       H     -0.039218     0.064797    -0.010507
    14       H     -0.039533    -0.060512    -0.006796
    15       H      0.027269    -0.000354     0.002928
    16       S     -0.013030     0.055687    -0.004790
    17       O      0.006092     0.072490    -0.016062
    18       O     -0.034636     0.693215     0.021833
    19       O     -0.016912     0.091631    -0.030053
    20       O     -0.228435    -0.447953     0.017751
    21       H     -0.015382     0.094129     0.016791
    22       N      0.143411    -0.080766    -0.078810
    23       H     -0.123352     0.058867     0.018285
    24       H      0.431212    -0.592948    -0.328281


          GRADIENT NORM =   2.58873


                              **** WARNING ****

           GRADIENT IS VERY LARGE FOR A THERMO CALCULATION
           RESULTS ARE LIKELY TO BE INACCURATE IF THERE ARE
           ANY LOW-LYING VIBRATIONS (LESS THAN ABOUT 400CM-1)
           GRADIENT NORM SHOULD BE LESS THAN ABOUT 0.2 FOR THERMO
           TO GIVE ACCURATE RESULTS


          TIME FOR SCF CALCULATION =    0.09

          TIME FOR DERIVATIVES     =    0.04

          MOLECULAR WEIGHT =  238.24



          ROTATIONAL CONSTANTS IN CM(-1)

          A =    0.02259963   B =    0.01481983   C =    0.00944391



           PRINCIPAL MOMENTS OF INERTIA IN UNITS OF 10**(-40)*GRAM-CM**2

          A =     1238.6384   B =     1888.8726   C =     2964.1081


          ORIENTATION OF MOLECULE IN FORCE CALCULATION

    NO.       ATOM         X         Y         Z

     1          C      -1.5623    1.7547    0.0189
     2          C      -0.1153    1.7547    0.0189
     3          C       0.6225    2.9784    0.0189
     4          C       1.9945    2.9774    0.0274
     5          C       2.6993    1.7422    0.0371
     6          C       2.0193    0.5499    0.0316
     7          C       0.5866    0.5135    0.0167
     8          C      -0.1389   -0.7146   -0.0034
     9          C      -1.5263   -0.7098   -0.0200
    10          C      -2.2223    0.4996   -0.0176
    11          H       0.0786    3.9280    0.0105
    12          H       2.5579    3.9110    0.0271
    13          H       3.7925    1.7597    0.0479
    14          H       2.5837   -0.3862    0.0434
    15          H      -2.1021   -1.6458   -0.0411
    16          S       0.6605   -2.2249   -0.0215
    17          O       1.5716   -2.3387    1.1677
    18          O      -0.3695   -3.3212    0.0289
    19          O       1.4675   -2.3551   -1.2831
    20          O      -3.6094    0.4786   -0.1335
    21          H      -4.0230    0.5107    0.7782
    22          N      -2.2961    2.9091    0.1346
    23          H      -1.8605    3.8121   -0.0302
    24          H      -3.2950    2.8797   -0.0609


    FIRST DERIVATIVES WILL BE USED IN THE CALCULATION OF SECOND DERIVATIVES

          ESTIMATED TIME TO COMPLETE CALCULATION =       18.14 SECONDS

    FOR POINT-GROUP C1   THERE ARE   1 UNIQUE SYMMETRY FUNCTIONS.

 STEP:   1 TIME =     0.09 SECS, INTEGRAL =      0.09 TIME LEFT: 172799.79
 STEP:   2 TIME =     0.09 SECS, INTEGRAL =      0.18 TIME LEFT: 172799.70
 STEP:   3 TIME =     0.08 SECS, INTEGRAL =      0.26 TIME LEFT: 172799.61
 STEP:   4 TIME =     0.09 SECS, INTEGRAL =      0.35 TIME LEFT: 172799.53
 STEP:   5 TIME =     0.08 SECS, INTEGRAL =      0.43 TIME LEFT: 172799.44
 STEP:   6 TIME =     0.08 SECS, INTEGRAL =      0.52 TIME LEFT: 172799.36
 STEP:   7 TIME =     0.08 SECS, INTEGRAL =      0.60 TIME LEFT: 172799.27
 STEP:   8 TIME =     0.08 SECS, INTEGRAL =      0.69 TIME LEFT: 172799.19
 STEP:   9 TIME =     0.09 SECS, INTEGRAL =      0.78 TIME LEFT: 172799.10
 STEP:  10 TIME =     0.08 SECS, INTEGRAL =      0.86 TIME LEFT: 172799.01
 STEP:  11 TIME =     0.08 SECS, INTEGRAL =      0.95 TIME LEFT: 172798.93
 STEP:  12 TIME =     0.08 SECS, INTEGRAL =      1.03 TIME LEFT: 172798.84
 STEP:  13 TIME =     0.08 SECS, INTEGRAL =      1.12 TIME LEFT: 172798.76
 STEP:  14 TIME =     0.09 SECS, INTEGRAL =      1.21 TIME LEFT: 172798.67
 STEP:  15 TIME =     0.08 SECS, INTEGRAL =      1.29 TIME LEFT: 172798.58
 STEP:  16 TIME =     0.08 SECS, INTEGRAL =      1.38 TIME LEFT: 172798.50
 STEP:  17 TIME =     0.08 SECS, INTEGRAL =      1.46 TIME LEFT: 172798.41
 STEP:  18 TIME =     0.08 SECS, INTEGRAL =      1.54 TIME LEFT: 172798.33
 STEP:  19 TIME =     0.09 SECS, INTEGRAL =      1.63 TIME LEFT: 172798.24
 STEP:  20 TIME =     0.08 SECS, INTEGRAL =      1.72 TIME LEFT: 172798.16
 STEP:  21 TIME =     0.08 SECS, INTEGRAL =      1.80 TIME LEFT: 172798.07
 STEP:  22 TIME =     0.09 SECS, INTEGRAL =      1.89 TIME LEFT: 172797.98
 STEP:  23 TIME =     0.08 SECS, INTEGRAL =      1.97 TIME LEFT: 172797.90
 STEP:  24 TIME =     0.09 SECS, INTEGRAL =      2.06 TIME LEFT: 172797.81
 STEP:  25 TIME =     0.09 SECS, INTEGRAL =      2.15 TIME LEFT: 172797.73
 STEP:  26 TIME =     0.08 SECS, INTEGRAL =      2.23 TIME LEFT: 172797.64
 STEP:  27 TIME =     0.09 SECS, INTEGRAL =      2.32 TIME LEFT: 172797.56
 STEP:  28 TIME =     0.08 SECS, INTEGRAL =      2.40 TIME LEFT: 172797.47
 STEP:  29 TIME =     0.09 SECS, INTEGRAL =      2.49 TIME LEFT: 172797.38
 STEP:  30 TIME =     0.08 SECS, INTEGRAL =      2.57 TIME LEFT: 172797.30
 STEP:  31 TIME =     0.08 SECS, INTEGRAL =      2.66 TIME LEFT: 172797.22
 STEP:  32 TIME =     0.08 SECS, INTEGRAL =      2.74 TIME LEFT: 172797.13
 STEP:  33 TIME =     0.08 SECS, INTEGRAL =      2.82 TIME LEFT: 172797.05
 STEP:  34 TIME =     0.08 SECS, INTEGRAL =      2.91 TIME LEFT: 172796.97
 STEP:  35 TIME =     0.08 SECS, INTEGRAL =      2.99 TIME LEFT: 172796.88
 STEP:  36 TIME =     0.08 SECS, INTEGRAL =      3.07 TIME LEFT: 172796.80
 STEP:  37 TIME =     0.08 SECS, INTEGRAL =      3.16 TIME LEFT: 172796.72
 STEP:  38 TIME =     0.08 SECS, INTEGRAL =      3.24 TIME LEFT: 172796.64
 STEP:  39 TIME =     0.08 SECS, INTEGRAL =      3.32 TIME LEFT: 172796.55
 STEP:  40 TIME =     0.08 SECS, INTEGRAL =      3.40 TIME LEFT: 172796.47
 STEP:  41 TIME =     0.08 SECS, INTEGRAL =      3.49 TIME LEFT: 172796.39
 STEP:  42 TIME =     0.08 SECS, INTEGRAL =      3.57 TIME LEFT: 172796.31
 STEP:  43 TIME =     0.08 SECS, INTEGRAL =      3.65 TIME LEFT: 172796.22
 STEP:  44 TIME =     0.08 SECS, INTEGRAL =      3.74 TIME LEFT: 172796.14
 STEP:  45 TIME =     0.08 SECS, INTEGRAL =      3.82 TIME LEFT: 172796.06
 STEP:  46 TIME =     0.08 SECS, INTEGRAL =      3.90 TIME LEFT: 172795.97
 STEP:  47 TIME =     0.08 SECS, INTEGRAL =      3.99 TIME LEFT: 172795.89
 STEP:  48 TIME =     0.08 SECS, INTEGRAL =      4.07 TIME LEFT: 172795.80
 STEP:  49 TIME =     0.08 SECS, INTEGRAL =      4.16 TIME LEFT: 172795.72
 STEP:  50 TIME =     0.08 SECS, INTEGRAL =      4.24 TIME LEFT: 172795.63
 STEP:  51 TIME =     0.08 SECS, INTEGRAL =      4.33 TIME LEFT: 172795.55
 STEP:  52 TIME =     0.08 SECS, INTEGRAL =      4.41 TIME LEFT: 172795.46
 STEP:  53 TIME =     0.08 SECS, INTEGRAL =      4.49 TIME LEFT: 172795.38
 STEP:  54 TIME =     0.08 SECS, INTEGRAL =      4.58 TIME LEFT: 172795.30
 STEP:  55 TIME =     0.08 SECS, INTEGRAL =      4.66 TIME LEFT: 172795.21
 STEP:  56 TIME =     0.08 SECS, INTEGRAL =      4.75 TIME LEFT: 172795.13
 STEP:  57 TIME =     0.08 SECS, INTEGRAL =      4.83 TIME LEFT: 172795.04
 STEP:  58 TIME =     0.08 SECS, INTEGRAL =      4.91 TIME LEFT: 172794.96
 STEP:  59 TIME =     0.08 SECS, INTEGRAL =      5.00 TIME LEFT: 172794.87
 STEP:  60 TIME =     0.08 SECS, INTEGRAL =      5.08 TIME LEFT: 172794.79
 STEP:  61 TIME =     0.08 SECS, INTEGRAL =      5.17 TIME LEFT: 172794.71
 STEP:  62 TIME =     0.08 SECS, INTEGRAL =      5.25 TIME LEFT: 172794.62
 STEP:  63 TIME =     0.08 SECS, INTEGRAL =      5.33 TIME LEFT: 172794.54
 STEP:  64 TIME =     0.09 SECS, INTEGRAL =      5.42 TIME LEFT: 172794.46
 STEP:  65 TIME =     0.08 SECS, INTEGRAL =      5.50 TIME LEFT: 172794.37
 STEP:  66 TIME =     0.08 SECS, INTEGRAL =      5.59 TIME LEFT: 172794.29
 STEP:  67 TIME =     0.09 SECS, INTEGRAL =      5.68 TIME LEFT: 172794.20
 STEP:  68 TIME =     0.08 SECS, INTEGRAL =      5.76 TIME LEFT: 172794.11
 STEP:  69 TIME =     0.08 SECS, INTEGRAL =      5.84 TIME LEFT: 172794.03
 STEP:  70 TIME =     0.08 SECS, INTEGRAL =      5.93 TIME LEFT: 172793.95
 STEP:  71 TIME =     0.08 SECS, INTEGRAL =      6.01 TIME LEFT: 172793.87
 STEP:  72 TIME =     0.08 SECS, INTEGRAL =      6.09 TIME LEFT: 172793.78

(To convert to Hartree/Bohr^2, multiply by (10^(-21) x N x a0^2)/(4.184 x 627.51) = 0.0642)


           FORCE MATRIX IN MILLIDYNES/ANGSTROM


                  C  1       C  2       C  3       C  4       C  5       C  6
 ------------------------------------------------------------------------------
     C    1  15.769365
     C    2   4.138573  15.171815
     C    3   1.117350   4.874699  15.103003
     C    4   0.344571   1.577351   7.027014  14.917730
     C    5   0.273443   0.836490   1.739889   5.047985  14.878815
     C    6   0.221670   1.223193   0.867189   1.667729   6.973047  14.840095
     C    7   1.198433   4.972050   1.407611   0.917133   1.722866   4.617698
     C    8   0.979008   1.258379   0.187219   0.243593   0.359253   1.191521
     C    9   1.878382   0.640400   0.152323   0.188796   0.232200   0.291679
     C   10   4.620917   1.168166   0.186987   0.169927   0.184122   0.201630
     H   11   0.055679   0.629521   3.448556   0.683895   0.101979   0.019385
     H   12   0.022769   0.094310   0.694539   3.478886   0.650821   0.067198
     H   13   0.019463   0.021874   0.066855   0.629118   3.477025   0.665358
     H   14   0.023474   0.060631   0.013399   0.096056   0.728682   3.429892
     H   15   0.095101   0.011364   0.007353   0.004628   0.004768   0.008953
     S   16   0.536013   0.169368   0.026512   0.058375   0.103905   0.156383
     O   17   0.125975   0.041144   0.007996   0.017362   0.029600   0.090337
     O   18   0.117885   0.039252   0.005230   0.011518   0.019365   0.037882
     O   19   0.126277   0.041064   0.007858   0.016322   0.035806   0.073199
     O   20   0.972452   0.114592   0.017662   0.015260   0.016543   0.028094
     H   21   0.088101   0.024400   0.003516   0.003289   0.004503   0.007402
     N   22   5.797288   1.260451   0.152108   0.096912   0.068820   0.030862
     H   23   0.895873   0.065222   0.063430   0.016905   0.010090   0.005642
     H   24   0.893244   0.103419   0.021011   0.015425   0.008829   0.005430


                  C  7       C  8       C  9       C 10       H 11       H 12
 ------------------------------------------------------------------------------
     C    7  15.414900
     C    8   4.850536  14.460688
     C    9   1.610981   6.015318  14.908228
     C   10   0.717580   1.860837   5.591860  14.762810
     H   11   0.065906   0.014212   0.016507   0.036232   4.250403
     H   12   0.014751   0.018706   0.007384   0.007858   0.029232   4.303885
     H   13   0.103699   0.017752   0.004986   0.004410   0.009691   0.018723
     H   14   0.635654   0.028536   0.008595   0.006922   0.010335   0.008849
     H   15   0.077885   0.629124   3.386402   0.670282   0.001581   0.001722
     S   16   0.922085   2.434664   1.289572   0.494447   0.015942   0.017065
     O   17   0.111324   0.726181   0.156747   0.108938   0.005435   0.005607
     O   18   0.104033   0.710536   0.184988   0.125226   0.003157   0.004041
     O   19   0.111632   0.729412   0.148495   0.109716   0.004546   0.004996
     O   20   0.056729   0.155407   0.948737   4.512031   0.011964   0.006219
     H   21   0.015521   0.050889   0.100602   0.998471   0.002346   0.001271
     N   22   0.140010   0.352293   0.463736   1.726303   0.083380   0.013499
     H   23   0.014992   0.047488   0.068184   0.124157   0.049267   0.002948
     H   24   0.023500   0.045881   0.056615   0.103671   0.003173   0.002589


                  H 13       H 14       H 15       S 16       O 17       O 18
 ------------------------------------------------------------------------------
     H   13   4.275055
     H   14   0.034311   4.265875
     H   15   0.001602   0.005291   4.172996
     S   16   0.020910   0.153418   0.236877  13.319447
     O   17   0.006786   0.032311   0.039322   4.502074   5.877601
     O   18   0.004533   0.008674   0.145126   4.769192   1.049754   6.216378
     O   19   0.006102   0.031985   0.020446   4.647588   0.991609   0.951508
     O   20   0.006595   0.007052   0.051423   0.122928   0.036793   0.037715
     H   21   0.001369   0.002042   0.025350   0.037911   0.008199   0.009829
     N   22   0.011069   0.012255   0.024733   0.381421   0.089915   0.083867
     H   23   0.001447   0.001650   0.005550   0.046452   0.010172   0.010166
     H   24   0.001630   0.002168   0.003849   0.047789   0.011281   0.009971


                  O 19       O 20       H 21       N 22       H 23       H 24
 ------------------------------------------------------------------------------
     O   19   6.114858
     O   20   0.040076   7.564148
     H   21   0.009296   3.087965   3.605395
     N   22   0.091492   0.106836   0.029697  13.000616
     H   23   0.010621   0.021721   0.007543   3.795359   4.320614
     H   24   0.011402   0.045929   0.025901   3.765583   0.467840   4.329171


          HEAT OF FORMATION =    -249.112066 KCALS/MOLE

          ZERO POINT ENERGY      99.696 KCAL/MOL


           NORMAL COORDINATE ANALYSIS (Total motion = 1 Angstrom)


   Root No.       1         2         3         4         5         6         7         8

                 1 A       2 A       3 A       4 A       5 A       6 A       7 A       8 A   

                  87.3     114.2     146.3     157.2     170.0     242.8     244.3     261.4
  
           1   -0.0004   -0.0013   -0.0068   -0.0008    0.0013   -0.0011    0.0014   -0.0015
           2   -0.0006   -0.0001    0.0012    0.0019   -0.0005   -0.0021    0.0160    0.0036
           3    0.0235   -0.0193    0.0080   -0.0058   -0.0055    0.0357    0.0099    0.0018
           4   -0.0003   -0.0011   -0.0071   -0.0009    0.0008   -0.0001   -0.0042   -0.0026
           5   -0.0018   -0.0068   -0.0128    0.0032    0.0012   -0.0004   -0.0031   -0.0012
           6    0.0062   -0.0059   -0.0021   -0.0253   -0.0288    0.0600    0.0204   -0.0328
           7    0.0018    0.0072    0.0108   -0.0029   -0.0004    0.0031   -0.0301   -0.0068
           8   -0.0031   -0.0117   -0.0236    0.0043    0.0024   -0.0023    0.0116    0.0015
           9    0.0087    0.0251   -0.0249    0.0012   -0.0722    0.0190    0.0087   -0.0263
          10    0.0019    0.0067    0.0103   -0.0030   -0.0009    0.0038   -0.0316   -0.0077
          11   -0.0054   -0.0200   -0.0426    0.0058    0.0043   -0.0043    0.0330    0.0053
          12   -0.0039    0.0462   -0.0293    0.0151   -0.0339   -0.0522   -0.0164    0.0272
          13    0.0004   -0.0002   -0.0043   -0.0016   -0.0004    0.0052   -0.0286   -0.0077
          14   -0.0062   -0.0238   -0.0503    0.0063    0.0047   -0.0036    0.0349    0.0052
          15   -0.0180    0.0389   -0.0117   -0.0053    0.0555   -0.0321   -0.0123    0.0316
          16   -0.0020   -0.0079   -0.0205    0.0002    0.0013    0.0030   -0.0115   -0.0044
          17   -0.0049   -0.0189   -0.0402    0.0055    0.0039   -0.0022    0.0229    0.0035
          18   -0.0234    0.0105    0.0042   -0.0396    0.0737    0.0424    0.0143   -0.0233
          19   -0.0020   -0.0082   -0.0217    0.0007    0.0017    0.0022   -0.0096   -0.0037
          20   -0.0023   -0.0095   -0.0189    0.0036    0.0016    0.0013   -0.0090   -0.0019
          21   -0.0162   -0.0135    0.0083   -0.0466    0.0115    0.0506    0.0179   -0.0330
          22   -0.0052   -0.0160   -0.0343    0.0049    0.0033    0.0020   -0.0035   -0.0020
          23   -0.0008   -0.0051   -0.0114    0.0017    0.0012    0.0035   -0.0204   -0.0044
          24   -0.0307   -0.0349    0.0161   -0.0571   -0.0067    0.0029   -0.0006    0.0055
          25   -0.0044   -0.0159   -0.0337    0.0041    0.0031    0.0020   -0.0070   -0.0038
          26    0.0008   -0.0011   -0.0018    0.0021    0.0002   -0.0006    0.0088    0.0010
          27   -0.0506   -0.0188    0.0139   -0.0502   -0.0186    0.0127   -0.0161    0.0842
          28   -0.0022   -0.0093   -0.0208    0.0013    0.0019   -0.0001    0.0016   -0.0023
          29    0.0022    0.0020    0.0079    0.0006   -0.0010   -0.0032    0.0192    0.0034
          30   -0.0319    0.0024    0.0067   -0.0021   -0.0055    0.0296    0.0024    0.0383
          31    0.0031    0.0134    0.0239   -0.0043   -0.0023    0.0045   -0.0470   -0.0094
          32   -0.0024   -0.0080   -0.0163    0.0037    0.0008   -0.0014    0.0026    0.0000
          33    0.0182    0.0314   -0.0378    0.0122   -0.1292    0.0319    0.0148   -0.0506
          34    0.0032    0.0120    0.0225   -0.0040   -0.0010    0.0040   -0.0405   -0.0090
          35   -0.0061   -0.0231   -0.0497    0.0063    0.0044   -0.0044    0.0377    0.0060
          36   -0.0038    0.0682   -0.0447    0.0382   -0.0635   -0.1114   -0.0347    0.0593
          37    0.0004   -0.0004   -0.0041   -0.0018   -0.0008    0.0056   -0.0281   -0.0081
          38   -0.0082   -0.0308   -0.0643    0.0075    0.0061   -0.0033    0.0444    0.0062
          39   -0.0247    0.0561   -0.0130    0.0049    0.1019   -0.0697   -0.0274    0.0715
          40   -0.0020   -0.0096   -0.0250    0.0008    0.0000    0.0003    0.0029   -0.0012
          41   -0.0049   -0.0202   -0.0433    0.0060    0.0035   -0.0034    0.0315    0.0052
          42   -0.0324    0.0124    0.0131   -0.0612    0.1338    0.0804    0.0262   -0.0387
          43   -0.0049   -0.0180   -0.0407    0.0060    0.0041    0.0038   -0.0203   -0.0092
          44    0.0017    0.0003    0.0049    0.0020   -0.0005   -0.0015    0.0190    0.0027
          45   -0.0752   -0.0132    0.0077   -0.0683   -0.0294   -0.0052   -0.0443    0.1540
          46   -0.0032   -0.0023    0.0102    0.0039   -0.0015   -0.0045    0.0108    0.0017
          47    0.0026    0.0079    0.0140   -0.0028   -0.0013    0.0054   -0.0340   -0.0051
          48    0.0046   -0.0204    0.0038    0.0019   -0.0090   -0.0225   -0.0020   -0.0133
          49    0.0076    0.0253   -0.0052   -0.0669    0.0010   -0.0179    0.0086   -0.0034
          50    0.0548    0.0862    0.0288    0.0069    0.0019    0.0548   -0.0326    0.0206
          51    0.0053   -0.0238    0.0183    0.0520   -0.0093   -0.0027   -0.0024   -0.0052
          52    0.0101    0.0312    0.0533   -0.0175   -0.0045   -0.0163    0.0457   -0.0006
          53   -0.0070   -0.0180   -0.0268    0.0113    0.0024    0.0178   -0.0694   -0.0031
          54    0.0488    0.0486   -0.0404   -0.0545   -0.0028   -0.0337   -0.0004   -0.0153
          55   -0.0037   -0.0101    0.0423    0.0811   -0.0045    0.0286    0.0110    0.0214
          56   -0.0363   -0.0256    0.0809   -0.0406   -0.0102   -0.0541   -0.0419   -0.0387
          57    0.0092   -0.0193    0.0172    0.0545   -0.0094    0.0055   -0.0010    0.0028
          58    0.0006   -0.0141   -0.0202   -0.0069   -0.0006    0.0046   -0.0001    0.0051
          59    0.0056    0.0127    0.0312    0.0033   -0.0016   -0.0179    0.0877    0.0025
          60   -0.0606    0.0544   -0.0067    0.0834    0.0226   -0.0163    0.0014   -0.0325
          61   -0.0207    0.0234   -0.0296    0.0551    0.0193   -0.0298    0.0032   -0.0520
          62   -0.0027    0.0013    0.0339   -0.0288   -0.0145    0.0024    0.0574    0.0533
          63   -0.0698    0.0719   -0.0114    0.1131    0.0324   -0.0331    0.0038   -0.0612
          64    0.0024    0.0051    0.0082   -0.0018    0.0020   -0.0050    0.0126    0.0114
          65   -0.0056    0.0055    0.0103   -0.0015   -0.0036    0.0003    0.0264    0.0123
          66    0.0996   -0.0563    0.0176    0.0189    0.0358   -0.0259   -0.0097    0.0143
          67    0.0024    0.0111    0.0196   -0.0075   -0.0026    0.0017    0.0265    0.0168
          68    0.0018    0.0010    0.0049    0.0020   -0.0004   -0.0033    0.0194    0.0050
          69    0.1389   -0.0629    0.0178    0.0245    0.0394   -0.0260   -0.0163   -0.0168
          70    0.0023    0.0038    0.0075   -0.0053   -0.0009    0.0005    0.0149    0.0081
          71    0.0080    0.0067    0.0246   -0.0029   -0.0010   -0.0042    0.0344    0.0214
          72    0.0969   -0.0481    0.0190    0.0370    0.0492   -0.0517   -0.0227    0.0300


   Root No.       9        10        11        12        13        14        15        16

                 9 A      10 A      11 A      12 A      13 A      14 A      15 A      16 A   

                 284.9     297.8     318.7     374.0     396.3     422.7     430.6     449.0
  
           1   -0.0086   -0.0277    0.0140   -0.0008    0.0017    0.0168   -0.0039    0.0096
           2    0.0008    0.0288   -0.0447   -0.0060    0.0023    0.0168   -0.0096    0.0040
           3   -0.0038   -0.0018   -0.0022    0.0567    0.0467   -0.0167    0.0121    0.0028
           4   -0.0122   -0.0226    0.0093   -0.0031   -0.0003    0.0077    0.0096    0.0036
           5    0.0084    0.0019   -0.0408   -0.0057   -0.0013   -0.0005    0.0073    0.0124
           6   -0.0016    0.0042    0.0007    0.0275    0.0203   -0.0118    0.0142    0.0153
           7    0.0057   -0.0113   -0.0300   -0.0066   -0.0013   -0.0071    0.0311   -0.0033
           8   -0.0031   -0.0051   -0.0213   -0.0044   -0.0003    0.0079    0.0010    0.0177
           9    0.0005    0.0054    0.0024   -0.0118   -0.0364    0.0174   -0.0091   -0.0043
          10    0.0064   -0.0118   -0.0321   -0.0074   -0.0024   -0.0092    0.0348   -0.0047
          11   -0.0273   -0.0167    0.0120   -0.0050   -0.0003    0.0110    0.0198    0.0038
          12    0.0023   -0.0012    0.0009   -0.0197    0.0095   -0.0066   -0.0049   -0.0055
          13   -0.0027   -0.0179   -0.0115   -0.0033   -0.0029   -0.0193    0.0359   -0.0254
          14   -0.0327   -0.0192    0.0236   -0.0035   -0.0014    0.0047    0.0213   -0.0087
          15    0.0026   -0.0016   -0.0023    0.0245    0.0253   -0.0110    0.0120    0.0119
          16   -0.0164   -0.0255    0.0195    0.0017   -0.0010   -0.0103    0.0166   -0.0243
          17   -0.0224   -0.0129    0.0036   -0.0050   -0.0015   -0.0013    0.0288   -0.0075
          18    0.0021    0.0047    0.0005   -0.0080   -0.0356    0.0171   -0.0126   -0.0116
          19   -0.0160   -0.0234    0.0188    0.0013   -0.0015   -0.0068    0.0106   -0.0194
          20    0.0040    0.0030   -0.0270   -0.0016   -0.0026   -0.0149    0.0088    0.0004
          21    0.0005    0.0040    0.0025   -0.0243    0.0023   -0.0073    0.0014    0.0002
          22   -0.0013   -0.0072   -0.0063    0.0045   -0.0002   -0.0053   -0.0127   -0.0013
          23    0.0008   -0.0023   -0.0095    0.0014   -0.0026   -0.0204    0.0120   -0.0089
          24    0.0024   -0.0029    0.0027   -0.0585    0.0021   -0.0094   -0.0004   -0.0025
          25   -0.0066   -0.0069   -0.0108    0.0033    0.0014    0.0040   -0.0199    0.0004
          26   -0.0048    0.0236   -0.0242   -0.0042   -0.0009   -0.0041    0.0122   -0.0175
          27    0.0025   -0.0157   -0.0044   -0.0148   -0.0401    0.0040    0.0025   -0.0027
          28   -0.0024   -0.0206   -0.0153    0.0001    0.0066    0.0373   -0.0376    0.0263
          29   -0.0033    0.0233   -0.0274   -0.0063    0.0014    0.0166   -0.0033   -0.0069
          30   -0.0046   -0.0112   -0.0055    0.0663    0.0435   -0.0051   -0.0007   -0.0103
          31    0.0184    0.0005   -0.0534   -0.0091   -0.0038   -0.0160    0.0310   -0.0032
          32    0.0027    0.0027   -0.0332   -0.0057   -0.0022    0.0025    0.0015    0.0171
          33    0.0015    0.0083    0.0027   -0.0331   -0.0985    0.0509   -0.0280   -0.0182
          34    0.0193   -0.0057   -0.0527   -0.0079   -0.0012   -0.0056    0.0251    0.0112
          35   -0.0347   -0.0202    0.0240   -0.0046   -0.0010    0.0083    0.0251   -0.0063
          36    0.0040   -0.0049    0.0015   -0.0515    0.0182   -0.0118   -0.0169   -0.0197
          37   -0.0027   -0.0179   -0.0115   -0.0037   -0.0033   -0.0188    0.0353   -0.0249
          38   -0.0437   -0.0260    0.0491    0.0012   -0.0009    0.0045    0.0115   -0.0192
          39    0.0038   -0.0062   -0.0064    0.0690    0.0619   -0.0259    0.0326    0.0329
          40   -0.0243   -0.0288    0.0395    0.0024    0.0002   -0.0073    0.0091   -0.0221
          41   -0.0271   -0.0149    0.0161   -0.0041   -0.0014   -0.0005    0.0228   -0.0064
          42    0.0037    0.0075    0.0011   -0.0152   -0.0936    0.0506   -0.0361   -0.0305
          43    0.0015   -0.0130    0.0032    0.0098   -0.0022   -0.0257   -0.0097   -0.0040
          44   -0.0105    0.0262   -0.0333   -0.0076    0.0040    0.0136    0.0050   -0.0128
          45    0.0167   -0.0209   -0.0008   -0.0343   -0.1333    0.0233    0.0031    0.0170
          46    0.0257    0.0192   -0.0021    0.0124   -0.0083   -0.0330   -0.0308    0.0024
          47    0.0098    0.0009    0.0085    0.0078   -0.0055   -0.0386   -0.0002   -0.0023
          48    0.0006    0.0025    0.0028   -0.0325    0.0211   -0.0091   -0.0049    0.0023
          49    0.0582    0.0457    0.0155   -0.0564    0.0337    0.0274    0.0204    0.0014
          50   -0.0350   -0.0407    0.0148   -0.0431    0.0136    0.0244   -0.0187    0.0066
          51   -0.0237   -0.0185   -0.0066    0.0133   -0.0074   -0.0421   -0.0395    0.0040
          52   -0.0287   -0.0057   -0.0334    0.0015   -0.0081   -0.0503    0.0008   -0.0059
          53    0.0696    0.0306    0.0424    0.0135   -0.0001   -0.0151   -0.0308    0.0047
          54    0.0113    0.0122   -0.0008    0.0864   -0.0304    0.0254    0.0136   -0.0042
          55    0.0392    0.0313    0.0070    0.0304   -0.0155    0.0546    0.0388   -0.0053
          56   -0.0331   -0.0240    0.0173    0.0369    0.0005    0.0556    0.0024    0.0048
          57    0.0103    0.0100    0.0061   -0.0171    0.0120    0.0390    0.0366   -0.0035
          58   -0.0058   -0.0217   -0.0169    0.0089    0.0124    0.0434   -0.0447    0.0310
          59    0.0831   -0.0593    0.0361    0.0034   -0.0007   -0.0130   -0.0093   -0.0087
          60   -0.0035    0.0030    0.0009   -0.0166   -0.0074    0.0031   -0.0006    0.0090
          61    0.0001   -0.0138   -0.0086   -0.0580   -0.0244    0.0439   -0.0441    0.0307
          62    0.0369   -0.0201    0.0252    0.0314   -0.0545    0.0020    0.0552    0.2490
          63    0.0015    0.0044    0.0054   -0.0493   -0.0232    0.0020   -0.0021   -0.0005
          64   -0.0708    0.0437    0.0675    0.0018   -0.0036   -0.0109   -0.0058    0.0004
          65   -0.0367    0.0726   -0.0163    0.0044    0.0087    0.0158   -0.0282   -0.0124
          66    0.0027   -0.0020   -0.0051   -0.0181   -0.0150    0.0251   -0.0244   -0.0140
          67   -0.1302    0.1143    0.1166    0.0112   -0.0067   -0.0498    0.0096    0.0354
          68   -0.0149    0.0485   -0.0322   -0.0084   -0.0028    0.0021    0.0010    0.0122
          69   -0.0206    0.0386    0.0272   -0.0660   -0.0891   -0.1691    0.2011    0.2252
          70   -0.0693    0.0430    0.0643    0.0056   -0.0011   -0.0026   -0.0099    0.0172
          71   -0.1055    0.1555    0.0399   -0.0027   -0.0122   -0.0368    0.0003    0.0285
          72   -0.0120    0.0082    0.0137   -0.0361   -0.0284   -0.0323    0.0096   -0.0897


   Root No.      17        18        19        20        21        22        23        24

                17 A      18 A      19 A      20 A      21 A      22 A      23 A      24 A   

                 459.0     462.4     477.2     496.6     529.1     540.2     589.4     603.9
  
           1   -0.0117   -0.0044    0.0095   -0.0064    0.0157   -0.0085   -0.0243    0.0388
           2    0.0102    0.0106   -0.0161    0.0161    0.0067    0.0116   -0.0272   -0.0038
           3   -0.0040   -0.0044   -0.0065    0.0066   -0.0093   -0.0002   -0.0035    0.0202
           4   -0.0083   -0.0035    0.0057   -0.0031    0.0087   -0.0025   -0.0261    0.0394
           5   -0.0292   -0.0081    0.0114   -0.0093   -0.0095   -0.0008    0.0385    0.0142
           6    0.0059    0.0248   -0.0088   -0.0361    0.0128    0.0106   -0.0051    0.0258
           7   -0.0134   -0.0094    0.0116   -0.0148   -0.0331    0.0054   -0.0215   -0.0098
           8   -0.0338   -0.0085    0.0140   -0.0107    0.0043   -0.0058    0.0389    0.0507
           9   -0.0008   -0.0393   -0.0221   -0.0104    0.0068    0.0047    0.0035   -0.0145
          10   -0.0136   -0.0103    0.0116   -0.0152   -0.0367    0.0067   -0.0197   -0.0135
          11   -0.0149   -0.0068    0.0110   -0.0128   -0.0198    0.0032   -0.0384    0.0103
          12   -0.0013    0.0267    0.0336    0.0294   -0.0153   -0.0091   -0.0034    0.0129
          13    0.0246   -0.0011   -0.0034    0.0003   -0.0187    0.0039    0.0075   -0.0431
          14    0.0073   -0.0014    0.0015   -0.0033   -0.0120    0.0035   -0.0279   -0.0134
          15    0.0055   -0.0042   -0.0268   -0.0355    0.0173    0.0130    0.0027   -0.0109
          16    0.0384    0.0066   -0.0112    0.0125    0.0213   -0.0053    0.0074    0.0135
          17   -0.0017   -0.0052    0.0053   -0.0102   -0.0328    0.0083   -0.0174   -0.0438
          18   -0.0029   -0.0260    0.0075    0.0284   -0.0154   -0.0129   -0.0027    0.0108
          19    0.0314    0.0058   -0.0098    0.0116    0.0216   -0.0057    0.0079    0.0176
          20   -0.0116   -0.0046    0.0047   -0.0034   -0.0005   -0.0038    0.0542   -0.0063
          21   -0.0016    0.0507    0.0313   -0.0011    0.0070    0.0144    0.0022   -0.0110
          22    0.0117    0.0082   -0.0121    0.0105   -0.0009    0.0067    0.0482   -0.0023
          23    0.0024   -0.0038    0.0039    0.0006    0.0192   -0.0124    0.0354    0.0059
          24   -0.0049    0.0374    0.0134   -0.0045    0.0111    0.0120    0.0094   -0.0370
          25    0.0111    0.0107   -0.0125    0.0098    0.0011    0.0045    0.0494   -0.0028
          26    0.0292    0.0085   -0.0133    0.0133    0.0110    0.0070   -0.0019    0.0428
          27   -0.0036    0.0065   -0.0169   -0.0109    0.0019   -0.0061   -0.0009    0.0131
          28   -0.0150    0.0081   -0.0065    0.0071    0.0183   -0.0041   -0.0137   -0.0220
          29    0.0206    0.0074   -0.0082    0.0053    0.0094    0.0017   -0.0355    0.0301
          30   -0.0071   -0.0348    0.0093    0.0423   -0.0186   -0.0125    0.0034   -0.0161
          31   -0.0194   -0.0102    0.0119   -0.0155   -0.0357    0.0081    0.0156   -0.0173
          32   -0.0362   -0.0096    0.0136   -0.0110    0.0012   -0.0046    0.0580    0.0423
          33   -0.0078   -0.1241   -0.0596   -0.0020    0.0079    0.0027    0.0152   -0.0616
          34   -0.0388   -0.0147    0.0203   -0.0223   -0.0317    0.0024    0.0058    0.0279
          35    0.0012   -0.0039    0.0056   -0.0082   -0.0213    0.0051   -0.0504   -0.0146
          36   -0.0070    0.0630    0.0943    0.0987   -0.0511   -0.0349   -0.0093    0.0342
          37    0.0234   -0.0011   -0.0022    0.0005   -0.0187    0.0034    0.0061   -0.0402
          38    0.0353    0.0077   -0.0112    0.0129    0.0223   -0.0038   -0.0094    0.0066
          39    0.0130   -0.0297   -0.0910   -0.1050    0.0517    0.0356    0.0100   -0.0422
          40    0.0416    0.0104   -0.0107    0.0121    0.0269   -0.0042   -0.0270    0.0276
          41    0.0009   -0.0033    0.0050   -0.0091   -0.0274    0.0082   -0.0367   -0.0323
          42   -0.0086   -0.1027   -0.0034    0.0798   -0.0474   -0.0488   -0.0078    0.0355
          43    0.0115    0.0074   -0.0052    0.0074   -0.0022    0.0054    0.0967   -0.0111
          44    0.0284    0.0089   -0.0150    0.0153    0.0133    0.0065   -0.0322    0.0450
          45    0.0067    0.0092   -0.0510   -0.0531    0.0049   -0.0098   -0.0199    0.0693
          46    0.0057    0.0016   -0.0001   -0.0063   -0.0273    0.0130   -0.0066    0.0102
          47   -0.0095   -0.0061    0.0077    0.0029    0.0448   -0.0222   -0.0170   -0.0161
          48    0.0032   -0.0195   -0.0066    0.0011   -0.0016   -0.0031   -0.0017    0.0057
          49    0.0027   -0.0208   -0.0068    0.0023   -0.0044   -0.0017    0.0006    0.0091
          50    0.0072    0.0097   -0.0086    0.0002   -0.0241    0.0153    0.0113    0.0025
          51    0.0054   -0.0012   -0.0039   -0.0028   -0.0252    0.0130   -0.0083    0.0099
          52   -0.0035   -0.0078    0.0078   -0.0010    0.0300   -0.0168   -0.0104   -0.0052
          53    0.0014    0.0017    0.0008   -0.0031   -0.0126    0.0057   -0.0212    0.0009
          54   -0.0052    0.0213    0.0073    0.0003    0.0005    0.0025    0.0011   -0.0045
          55   -0.0061    0.0187    0.0069    0.0010    0.0055    0.0020    0.0045   -0.0043
          56    0.0048    0.0031   -0.0094    0.0046   -0.0206    0.0101    0.0099    0.0060
          57   -0.0047   -0.0080    0.0005    0.0043    0.0243   -0.0145    0.0073   -0.0058
          58   -0.0173    0.0041   -0.0059    0.0146    0.0253   -0.0086   -0.0182   -0.0351
          59   -0.0093    0.0074   -0.0120    0.0021   -0.0086   -0.0039    0.0197   -0.0137
          60    0.0055    0.0067    0.0022   -0.0057    0.0046    0.0000   -0.0010   -0.0026
          61   -0.0187    0.0472   -0.0218   -0.0283    0.0349   -0.0042   -0.0168   -0.0147
          62    0.2422   -0.1297    0.1820    0.0091    0.0622    0.1280    0.0444   -0.0335
          63   -0.0034    0.0321   -0.0120   -0.0268    0.0077   -0.0024   -0.0002    0.0089
          64   -0.0302   -0.0092    0.0124   -0.0094    0.0068    0.0064    0.0171    0.0079
          65    0.0154    0.0063   -0.0057   -0.0022   -0.0072   -0.0004    0.0001   -0.0272
          66    0.0179   -0.0007    0.0166   -0.0232   -0.0025   -0.0272    0.0036   -0.0068
          67   -0.0302    0.0020   -0.0008   -0.0127   -0.0434   -0.0586    0.0676   -0.0377
          68    0.0053    0.0152   -0.0278    0.0289    0.0030    0.0215   -0.0274   -0.0074
          69   -0.0513    0.0814   -0.1585    0.1668   -0.0733   -0.0408   -0.0299   -0.0019
          70   -0.0050   -0.0009    0.0137   -0.0281   -0.0201   -0.0685    0.0196    0.0066
          71    0.0026    0.0159   -0.0227    0.0099   -0.0476   -0.0296    0.0557   -0.0799
          72   -0.1301   -0.0431   -0.0021    0.0935    0.1388    0.3931   -0.0064   -0.0015


   Root No.      25        26        27        28        29        30        31        32

                25 A      26 A      27 A      28 A      29 A      30 A      31 A      32 A   

                 611.5     682.5     771.4     787.3     794.9     835.5     910.3     931.2
  
           1    0.0186    0.0001    0.0033    0.0039   -0.0388    0.0000   -0.0004   -0.0016
           2    0.0010   -0.0038   -0.0137    0.0017    0.0137    0.0000   -0.0013   -0.0066
           3   -0.0270    0.1180   -0.0046   -0.0637   -0.0115   -0.0082    0.0110    0.0036
           4    0.0186    0.0023   -0.0098   -0.0007    0.0051   -0.0007   -0.0014   -0.0036
           5    0.0025   -0.0004   -0.0286    0.0022   -0.0035   -0.0002    0.0004    0.0002
           6   -0.0442   -0.0342    0.0075    0.0858    0.0102    0.0130   -0.0310   -0.0109
           7   -0.0009   -0.0001    0.0277   -0.0056    0.0314    0.0003    0.0002    0.0021
           8    0.0175    0.0001   -0.0609    0.0032    0.0089   -0.0010   -0.0015   -0.0052
           9    0.0225   -0.0046    0.0005   -0.0015    0.0009   -0.0213    0.0273    0.0128
          10   -0.0023    0.0004    0.0257   -0.0057    0.0322    0.0001    0.0001    0.0016
          11    0.0089    0.0010    0.0330   -0.0097    0.0612    0.0002    0.0007    0.0005
          12   -0.0208    0.0010    0.0009    0.0122    0.0011   -0.0284    0.0307    0.0109
          13   -0.0186   -0.0019   -0.0572    0.0128   -0.0580    0.0003   -0.0001   -0.0012
          14   -0.0029    0.0011   -0.0024   -0.0001    0.0009    0.0003    0.0006   -0.0016
          15    0.0172   -0.0098   -0.0024   -0.0149   -0.0015   -0.0211   -0.0123   -0.0082
          16    0.0047    0.0002   -0.0610   -0.0004    0.0423    0.0006    0.0014    0.0023
          17   -0.0161   -0.0013    0.0064    0.0080   -0.0607    0.0003   -0.0005   -0.0029
          18   -0.0180    0.0025   -0.0003   -0.0097   -0.0026   -0.0267   -0.0521   -0.0159
          19    0.0060    0.0021   -0.0187   -0.0027    0.0303   -0.0006   -0.0003   -0.0016
          20   -0.0088   -0.0001   -0.0044    0.0041   -0.0168    0.0003    0.0018    0.0015
          21    0.0154   -0.0619   -0.0087   -0.0821   -0.0081    0.0326    0.0406    0.0222
          22   -0.0052   -0.0023    0.0563   -0.0063    0.0136    0.0006   -0.0009   -0.0072
          23   -0.0020   -0.0024   -0.0042    0.0006   -0.0076    0.0009    0.0025    0.0108
          24    0.0613    0.0821    0.0033    0.0538    0.0054   -0.0176   -0.0135   -0.0172
          25   -0.0050    0.0007    0.0708   -0.0067    0.0085    0.0001   -0.0013    0.0008
          26    0.0204   -0.0031    0.0633    0.0005   -0.0472    0.0003    0.0020    0.0004
          27   -0.0207   -0.0040    0.0035   -0.0080   -0.0019    0.0004   -0.0036    0.0052
          28   -0.0111    0.0036   -0.0089    0.0003   -0.0007   -0.0002   -0.0005   -0.0002
          29    0.0155    0.0013    0.0061    0.0033   -0.0367   -0.0003    0.0008    0.0036
          30    0.0408   -0.0663    0.0018    0.0238    0.0035    0.0020   -0.0012    0.0000
          31   -0.0104    0.0041   -0.0047   -0.0036    0.0041    0.0009   -0.0003    0.0017
          32    0.0119    0.0028   -0.0752    0.0027   -0.0055    0.0009   -0.0032   -0.0059
          33    0.1073    0.0712   -0.0145   -0.1477   -0.0194    0.1499   -0.1533   -0.0676
          34    0.0125   -0.0005    0.0151   -0.0093    0.0715   -0.0031    0.0000   -0.0004
          35   -0.0005    0.0016    0.0329   -0.0065    0.0326    0.0021    0.0007    0.0010
          36   -0.0492    0.0695    0.0007    0.0137   -0.0020    0.2625   -0.1907   -0.0534
          37   -0.0179   -0.0023   -0.0543    0.0113   -0.0515   -0.0025   -0.0007   -0.0019
          38    0.0021    0.0007   -0.0783    0.0039    0.0132   -0.0011    0.0006    0.0001
          39    0.0698    0.0412    0.0003    0.0363    0.0047    0.2271    0.0855    0.0609
          40    0.0150   -0.0029   -0.0503   -0.0164    0.0820   -0.0067   -0.0100   -0.0060
          41   -0.0091   -0.0017    0.0098    0.0001   -0.0316   -0.0024   -0.0044   -0.0077
          42   -0.0453    0.1554    0.0178    0.2275    0.0322    0.1436    0.2532    0.1079
          43   -0.0078    0.0022    0.0890   -0.0101    0.0425   -0.0019   -0.0055   -0.0071
          44    0.0244   -0.0031    0.0464    0.0054   -0.0682    0.0006    0.0031    0.0084
          45   -0.1302   -0.0442   -0.0144   -0.0955   -0.0071    0.0243    0.0403    0.0076
          46    0.0064   -0.0003   -0.0092    0.0004   -0.0030    0.0002    0.0009    0.0057
          47   -0.0072    0.0015    0.0142   -0.0029    0.0076    0.0003    0.0014   -0.0295
          48   -0.0094   -0.0087   -0.0003   -0.0038    0.0001    0.0002   -0.0065    0.1300
          49   -0.0082   -0.0100   -0.0053   -0.0028   -0.0031    0.0021    0.0075   -0.1236
          50    0.0059    0.0036    0.0011    0.0015    0.0011   -0.0012   -0.0024    0.0228
          51    0.0033   -0.0039   -0.0103    0.0013   -0.0052    0.0018    0.0096   -0.1700
          52   -0.0021    0.0007    0.0042    0.0004   -0.0016   -0.0005   -0.0037    0.0467
          53    0.0060    0.0014   -0.0042    0.0025   -0.0026   -0.0009   -0.0041    0.0477
          54    0.0080    0.0057   -0.0009    0.0026    0.0000   -0.0007   -0.0010    0.0062
          55    0.0096    0.0090   -0.0046    0.0055   -0.0013   -0.0022   -0.0048    0.0679
          56   -0.0042   -0.0058    0.0018   -0.0023    0.0007    0.0013    0.0015   -0.0099
          57   -0.0110   -0.0044    0.0118   -0.0056    0.0042    0.0024    0.0066   -0.0994
          58   -0.0122   -0.0045   -0.0082    0.0033   -0.0166    0.0003    0.0024    0.0042
          59   -0.0076   -0.0029    0.0051   -0.0011    0.0076    0.0001   -0.0001    0.0003
          60   -0.0022    0.0044   -0.0006    0.0014   -0.0010    0.0001    0.0002   -0.0006
          61   -0.0454    0.0629   -0.0056   -0.0158   -0.0127   -0.0022   -0.0010    0.0017
          62   -0.0180    0.0422    0.0154   -0.0048    0.0129   -0.0027   -0.0017   -0.0005
          63   -0.0181    0.0364    0.0035   -0.0082   -0.0010   -0.0011   -0.0014   -0.0023
          64   -0.0001   -0.0033    0.0117    0.0050   -0.0311    0.0008    0.0000   -0.0001
          65   -0.0134    0.0054   -0.0246   -0.0057    0.0448   -0.0004   -0.0015   -0.0025
          66    0.0069   -0.0198    0.0031    0.0079    0.0025    0.0017   -0.0010   -0.0036
          67   -0.0134    0.0082    0.0124   -0.0091    0.0029   -0.0019    0.0051    0.0114
          68    0.0000   -0.0067   -0.0285    0.0025    0.0307    0.0005   -0.0039   -0.0071
          69    0.0485   -0.0506   -0.0255    0.0139    0.0051   -0.0003   -0.0020    0.0095
          70    0.0119   -0.0003    0.0141    0.0007   -0.0354    0.0000    0.0008   -0.0011
          71   -0.0261   -0.0120   -0.0282   -0.0037    0.0921    0.0003   -0.0002    0.0067
          72   -0.0628   -0.0275   -0.0211    0.0260    0.0320    0.0050   -0.0048    0.0120


   Root No.      33        34        35        36        37        38        39        40

                33 A      34 A      35 A      36 A      37 A      38 A      39 A      40 A   

                 935.5     943.8     955.5     972.3     978.3    1003.2    1024.2    1144.4
  
           1    0.0124    0.0145   -0.0208    0.0005   -0.0089   -0.0013    0.0412   -0.0014
           2    0.0095    0.0101   -0.0277    0.0007   -0.0046   -0.0010    0.0278    0.0029
           3    0.0002   -0.0010    0.0000   -0.0056    0.0026   -0.0027    0.0013    0.0002
           4    0.0107    0.0195   -0.0315   -0.0005    0.0003    0.0001    0.0084   -0.0248
           5   -0.0022   -0.0016    0.0033   -0.0007    0.0013    0.0005   -0.0007    0.0190
           6    0.0032   -0.0016    0.0027    0.0182   -0.0008    0.0125   -0.0011    0.0005
           7   -0.0041   -0.0084    0.0145    0.0005   -0.0022   -0.0002    0.0035    0.0221
           8    0.0065    0.0234   -0.0428    0.0008    0.0184   -0.0006   -0.0421   -0.0181
           9   -0.0001    0.0009   -0.0019   -0.0566    0.0079   -0.0408    0.0008    0.0006
          10   -0.0048   -0.0073    0.0109   -0.0007    0.0017    0.0005   -0.0088   -0.0018
          11   -0.0104   -0.0135    0.0262   -0.0001    0.0003    0.0005   -0.0053   -0.0349
          12   -0.0013    0.0030   -0.0024    0.0231   -0.0070    0.0596    0.0001   -0.0001
          13    0.0070    0.0164   -0.0249    0.0007    0.0070   -0.0005   -0.0174   -0.0351
          14   -0.0009   -0.0007    0.0007   -0.0002   -0.0009    0.0004    0.0002    0.0207
          15    0.0002   -0.0021    0.0036    0.0413   -0.0025   -0.0615   -0.0008   -0.0006
          16   -0.0070   -0.0088    0.0230    0.0004   -0.0004   -0.0004   -0.0119    0.0117
          17    0.0081    0.0153   -0.0280    0.0011    0.0033   -0.0011    0.0032    0.0057
          18    0.0047   -0.0018    0.0024   -0.0359    0.0042    0.0335    0.0003    0.0000
          19   -0.0046   -0.0075    0.0091   -0.0015   -0.0005    0.0015    0.0053   -0.0067
          20   -0.0097   -0.0275    0.0431   -0.0013   -0.0125    0.0003    0.0307   -0.0010
          21   -0.0074    0.0017   -0.0039    0.0061   -0.0050   -0.0094    0.0001   -0.0004
          22    0.0037    0.0108   -0.0438    0.0022    0.0144   -0.0009    0.0023    0.0058
          23   -0.0143   -0.0300    0.0785   -0.0027   -0.0259    0.0004    0.0544   -0.0180
          24    0.0313   -0.0099    0.0096   -0.0007    0.0292    0.0030    0.0030    0.0000
          25    0.0028    0.0212   -0.0341    0.0017    0.0164    0.0000   -0.0066   -0.0019
          26   -0.0050   -0.0207    0.0224    0.0000    0.0082    0.0005   -0.0416    0.0030
          27   -0.0737    0.0282   -0.0160   -0.0052   -0.0775   -0.0024   -0.0079    0.0001
          28    0.0001    0.0092   -0.0115    0.0001   -0.0021   -0.0004    0.0146   -0.0018
          29    0.0009   -0.0017    0.0165   -0.0011   -0.0068    0.0004   -0.0087   -0.0034
          30    0.0240   -0.0036   -0.0001    0.0024    0.0209    0.0010    0.0058   -0.0010
          31   -0.0044   -0.0033   -0.0007    0.0035   -0.0006    0.0032   -0.0099    0.1933
          32    0.0052    0.0229   -0.0462    0.0053    0.0178    0.0030   -0.0481    0.0810
          33   -0.0018   -0.0071    0.0128    0.2776   -0.0380    0.1565   -0.0028   -0.0030
          34   -0.0020    0.0043   -0.0153   -0.0015    0.0193   -0.0018   -0.0583    0.0536
          35   -0.0110   -0.0189    0.0378    0.0003   -0.0097    0.0015    0.0227   -0.0631
          36    0.0089   -0.0135    0.0123   -0.1108    0.0287   -0.2242   -0.0018    0.0007
          37    0.0065    0.0145   -0.0231    0.0033    0.0065   -0.0033   -0.0179   -0.0349
          38   -0.0055   -0.0035    0.0213    0.0018   -0.0041   -0.0028   -0.0069    0.2334
          39    0.0001    0.0136   -0.0193   -0.2113    0.0076    0.2557    0.0015    0.0024
          40    0.0078   -0.0148    0.0102   -0.0065   -0.0080    0.0041   -0.0324    0.0852
          41    0.0158    0.0101   -0.0298   -0.0018   -0.0029    0.0007   -0.0081    0.0530
          42   -0.0142    0.0091   -0.0139    0.1481   -0.0230   -0.1101   -0.0030    0.0016
          43    0.0114    0.0316   -0.0389   -0.0021   -0.0392   -0.0013    0.0668   -0.0360
          44   -0.0266   -0.0198    0.0279    0.0013    0.0304    0.0012   -0.0827    0.0231
          45    0.3557   -0.1461    0.0745    0.0297    0.4088    0.0100    0.0426   -0.0030
          46    0.0547    0.0228    0.0201   -0.0024   -0.0439   -0.0012   -0.0061   -0.0007
          47    0.0296   -0.0339   -0.0284   -0.0008   -0.0213   -0.0008   -0.0117    0.0009
          48    0.0042   -0.0287   -0.0101    0.0011   -0.0066   -0.0004   -0.0006   -0.0002
          49   -0.0279   -0.0466   -0.0062   -0.0008    0.0085    0.0008    0.0047   -0.0011
          50    0.0092    0.0047    0.0014   -0.0004   -0.0039    0.0002   -0.0004    0.0001
          51   -0.0496   -0.0652   -0.0101   -0.0003    0.0226    0.0011    0.0070   -0.0012
          52   -0.0592    0.0684    0.0096    0.0037    0.0609    0.0013    0.0071    0.0008
          53   -0.0591    0.0721    0.0092    0.0034    0.0566    0.0012    0.0037    0.0015
          54   -0.0009   -0.0027   -0.0006   -0.0002   -0.0028    0.0000   -0.0002    0.0000
          55   -0.0210   -0.0781   -0.0174    0.0006    0.0061    0.0006    0.0044   -0.0011
          56    0.0014    0.0114    0.0013    0.0001   -0.0010   -0.0002   -0.0003    0.0003
          57    0.0374    0.1263    0.0291   -0.0009   -0.0095   -0.0009   -0.0061    0.0016
          58   -0.0120   -0.0303    0.0521   -0.0013   -0.0006    0.0010   -0.0307    0.0017
          59   -0.0009   -0.0003   -0.0005    0.0002    0.0027    0.0001   -0.0031    0.0001
          60   -0.0019   -0.0036    0.0052   -0.0002    0.0007    0.0001   -0.0039    0.0014
          61   -0.0363    0.0088    0.0057   -0.0026   -0.0349    0.0000   -0.0017   -0.0145
          62   -0.0141    0.0067   -0.0142   -0.0011   -0.0087   -0.0001   -0.0009    0.0002
          63   -0.0146    0.0136   -0.0167   -0.0008   -0.0168   -0.0003    0.0086   -0.0077
          64    0.0014   -0.0040    0.0028    0.0007   -0.0040   -0.0002    0.0167    0.0143
          65    0.0069    0.0164   -0.0257    0.0005    0.0006   -0.0004    0.0241   -0.0043
          66   -0.0005   -0.0024   -0.0035    0.0008    0.0004    0.0003   -0.0006    0.0007
          67   -0.0332   -0.0431    0.0768   -0.0044    0.0196    0.0025   -0.1391   -0.0360
          68    0.0229    0.0373   -0.0609    0.0025   -0.0115   -0.0020    0.0990    0.0168
          69    0.0055    0.0335   -0.0090   -0.0006   -0.0106   -0.0011    0.0460    0.0050
          70    0.0019   -0.0049    0.0002    0.0002   -0.0046   -0.0005    0.0191    0.0154
          71   -0.0312   -0.0231    0.0468   -0.0018    0.0254    0.0041   -0.1463   -0.0585
[...]
 TRAVEL      0.0924        C  9 --  H 15           +9.5% ( 39.3%)     1.4%
 RED. MASS   0.4538        C  1 --  N 22           +9.2% ( 38.7%)    46.2%
 EFF. MASS   6.0609

 VIBRATION   47   47A       ATOM PAIR        ENERGY CONTRIBUTION    RADIAL
 FREQ.      1317.83        C  3 --  H 11          +24.8% ( 57.2%)     0.2%
 T-DIPOLE    0.5501        C  6 --  H 14          +23.9% ( 56.2%)     0.0%
 TRAVEL      0.1224        C  1 --  C  2           +7.0% ( 30.3%)    24.5%
 RED. MASS   0.3522        C  4 --  H 12           +6.5% ( 29.3%)     5.0%
 EFF. MASS   3.4165

 VIBRATION   48   48A       ATOM PAIR        ENERGY CONTRIBUTION    RADIAL
 FREQ.      1373.95        C  7 --  C  8          +17.6% ( 59.1%)    96.0%
 T-DIPOLE    0.9416        C  2 --  C  3           +7.6% ( 38.9%)    90.6%
 TRAVEL      0.0748        C  2 --  C  7           +7.5% ( 38.7%)    54.7%
 RED. MASS   1.0831        C  8 --  S 16           +7.5% ( 38.5%)    72.6%
 EFF. MASS   8.7630

 VIBRATION   49   49A       ATOM PAIR        ENERGY CONTRIBUTION    RADIAL
 FREQ.      1402.93        C  1 --  C 10          +15.9% ( 60.9%)    69.7%
 T-DIPOLE    2.1623        C  8 --  C  9           +9.5% ( 47.1%)    99.2%
 TRAVEL      0.0684        C  9 --  C 10           +7.9% ( 43.0%)    49.3%
 RED. MASS   1.3070        C 10 --  O 20           +7.4% ( 41.5%)    72.9%
 EFF. MASS  10.2735

 VIBRATION   50   50A       ATOM PAIR        ENERGY CONTRIBUTION    RADIAL
 FREQ.      1442.85        C  2 --  C  7          +16.0% ( 59.8%)    84.0%
 T-DIPOLE    2.8681        C  6 --  C  7          +10.2% ( 47.7%)    52.5%
 TRAVEL      0.0686        C  7 --  C  8          +10.1% ( 47.4%)    36.1%
 RED. MASS   1.3491        C  9 --  C 10           +7.4% ( 40.5%)    88.9%
 EFF. MASS   9.9300

 VIBRATION   51   51A       ATOM PAIR        ENERGY CONTRIBUTION    RADIAL
 FREQ.      1460.63        C  2 --  C  3          +16.5% ( 61.2%)    98.2%
 T-DIPOLE    0.1844        C  2 --  C  7          +12.2% ( 52.7%)    47.9%
 TRAVEL      0.0647        C  9 --  C 10           +9.2% ( 45.7%)    74.7%
 RED. MASS   1.5276        C  1 --  C  2           +7.7% ( 41.8%)     0.4%
 EFF. MASS  11.0288

 VIBRATION   52   52A       ATOM PAIR        ENERGY CONTRIBUTION    RADIAL
 FREQ.      1471.80        C  6 --  C  7          +12.6% ( 51.9%)    92.9%
 T-DIPOLE    0.7207        C  6 --  H 14           +9.3% ( 44.6%)     0.7%
 TRAVEL      0.0659        C  5 --  C  6           +9.2% ( 44.5%)    31.7%
 RED. MASS   1.1708        C  3 --  C  4           +8.6% ( 42.8%)    55.3%
 EFF. MASS  10.5531

 VIBRATION   53   53A       ATOM PAIR        ENERGY CONTRIBUTION    RADIAL
 FREQ.      1518.17        C  1 --  N 22          +26.7% ( 76.7%)    97.8%
 T-DIPOLE    8.3870        C  1 --  C  2          +26.1% ( 75.8%)    68.7%
 TRAVEL      0.0618        C  1 --  C 10          +18.4% ( 63.5%)    34.3%
 RED. MASS   3.8766        C  2 --  C  7           +7.0% ( 39.3%)    51.2%
 EFF. MASS  11.6379

 VIBRATION   54   54A       ATOM PAIR        ENERGY CONTRIBUTION    RADIAL
 FREQ.      1561.98        C  9 --  C 10          +16.0% ( 56.9%)    95.2%
 T-DIPOLE    2.8367        C  7 --  C  8          +11.2% ( 47.7%)    99.9%
 TRAVEL      0.0656        C  8 --  C  9           +7.9% ( 39.9%)     7.4%
 RED. MASS   1.4117        C  6 --  C  7           +7.0% ( 37.7%)    84.2%
 EFF. MASS  10.0193

 VIBRATION   55   55A       ATOM PAIR        ENERGY CONTRIBUTION    RADIAL
 FREQ.      1574.99        N 22 --  H 24          +32.6% ( 58.9%)     1.3%
 T-DIPOLE    0.9083        N 22 --  H 23          +30.8% ( 57.3%)     1.9%
 TRAVEL      0.1080        C  1 --  N 22           +4.9% ( 22.8%)    99.1%
 RED. MASS   0.4470        C  4 --  C  5           +4.2% ( 21.1%)    99.8%
 EFF. MASS   3.6718

 VIBRATION   56   56A       ATOM PAIR        ENERGY CONTRIBUTION    RADIAL
 FREQ.      1609.85        C  1 --  C 10          +11.4% ( 48.8%)    99.2%
 T-DIPOLE    4.6070        C  1 --  C  2          +10.5% ( 46.7%)    29.9%
 TRAVEL      0.0599        C  2 --  C  7           +9.7% ( 45.0%)    58.9%
 RED. MASS   1.4152        C  7 --  C  8           +8.6% ( 42.3%)   100.0%
 EFF. MASS  11.6912

 VIBRATION   57   57A       ATOM PAIR        ENERGY CONTRIBUTION    RADIAL
 FREQ.      1629.80        C  8 --  C  9          +16.2% ( 59.8%)    98.0%
 T-DIPOLE    3.6248        C  9 --  C 10           +9.0% ( 44.6%)    48.8%
 TRAVEL      0.0590        C  7 --  C  8           +7.7% ( 41.3%)    16.1%
 RED. MASS   1.5292        C  9 --  H 15           +6.5% ( 38.0%)     2.0%
 EFF. MASS  11.8970

 VIBRATION   58   58A       ATOM PAIR        ENERGY CONTRIBUTION    RADIAL
 FREQ.      1682.29        C  3 --  C  4          +19.9% ( 64.0%)    97.0%
 T-DIPOLE    2.7393        C  5 --  C  6          +19.8% ( 63.8%)    98.8%
 TRAVEL      0.0582        C  4 --  C  5          +11.6% ( 48.9%)     0.3%
 RED. MASS   2.5589        C  2 --  C  3           +9.8% ( 44.9%)    69.6%
 EFF. MASS  11.8353

 VIBRATION   59   59A       ATOM PAIR        ENERGY CONTRIBUTION    RADIAL
 FREQ.      2490.83        O 20 --  H 21          +99.5% ( 99.7%)    98.6%
 T-DIPOLE    1.8171        C 10 --  O 20           +0.3% (  5.6%)     3.6%
 TRAVEL      0.1434
 RED. MASS   0.9456
 EFF. MASS   1.3170

 VIBRATION   60   60A       ATOM PAIR        ENERGY CONTRIBUTION    RADIAL
 FREQ.      2697.16        C  9 --  H 15          +96.3% ( 99.8%)   100.0%
 T-DIPOLE    1.0014        C  9 --  S 16           +1.2% ( 11.0%)     0.3%
 TRAVEL      0.1333        C  8 --  C  9           +1.1% ( 10.8%)    27.6%
 RED. MASS   0.9256        C  9 --  C 10           +1.1% ( 10.8%)    20.5%
 EFF. MASS   1.4077

 VIBRATION   61   61A       ATOM PAIR        ENERGY CONTRIBUTION    RADIAL
 FREQ.      2713.47        C  3 --  H 11          +82.5% ( 92.0%)   100.0%
 T-DIPOLE    1.4348        N 22 --  H 23          +10.8% ( 33.3%)    99.7%
 TRAVEL      0.1335        C  4 --  H 12           +3.0% ( 17.4%)    99.5%
 RED. MASS   0.6756        C  6 --  H 14           +1.5% ( 12.5%)   100.0%
 EFF. MASS   1.3953

 VIBRATION   62   62A       ATOM PAIR        ENERGY CONTRIBUTION    RADIAL
 FREQ.      2723.60        C  6 --  H 14          +49.7% ( 71.3%)    99.9%
 T-DIPOLE    0.7138        C  5 --  H 13          +47.1% ( 69.4%)    99.9%
 TRAVEL      0.1342        C  5 --  C  6           +0.9% (  9.5%)     0.0%
 RED. MASS   0.4548        C  3 --  H 11           +0.7% (  8.6%)    99.9%
 EFF. MASS   1.3740

 VIBRATION   63   63A       ATOM PAIR        ENERGY CONTRIBUTION    RADIAL
 FREQ.      2734.47        C  6 --  H 14          +40.4% ( 64.2%)   100.0%
 T-DIPOLE    1.4164        C  5 --  H 13          +38.7% ( 62.8%)   100.0%
 TRAVEL      0.1329        C  4 --  H 12          +18.3% ( 43.2%)   100.0%
 RED. MASS   0.3379        C  5 --  C  6           +1.0% ( 10.0%)    99.9%
 EFF. MASS   1.3969

 VIBRATION   64   64A       ATOM PAIR        ENERGY CONTRIBUTION    RADIAL
 FREQ.      2739.93        N 22 --  H 23          +80.5% ( 89.6%)    99.5%
 T-DIPOLE    1.3309        C  3 --  H 11           +8.6% ( 29.2%)    99.9%
 TRAVEL      0.1366        N 22 --  H 24           +6.8% ( 26.0%)    60.7%
 RED. MASS   0.6301        C  4 --  H 12           +1.8% ( 13.3%)    99.8%
 EFF. MASS   1.3188

 VIBRATION   65   65A       ATOM PAIR        ENERGY CONTRIBUTION    RADIAL
 FREQ.      2742.08        N 22 --  H 24          +88.6% ( 95.3%)    99.9%
 T-DIPOLE    1.9166        N 22 --  H 23           +6.4% ( 25.6%)    80.2%
 TRAVEL      0.1299        C  4 --  H 12           +3.6% ( 19.3%)   100.0%
 RED. MASS   0.7870        C  1 --  N 22           +0.8% (  9.1%)     6.2%
 EFF. MASS   1.4570

 VIBRATION   66   66A       ATOM PAIR        ENERGY CONTRIBUTION    RADIAL
 FREQ.      2749.15        C  4 --  H 12          +71.0% ( 85.1%)   100.0%
 T-DIPOLE    1.0552        C  5 --  H 13          +10.8% ( 33.2%)    99.9%
 TRAVEL      0.1301        C  3 --  H 11           +5.7% ( 24.1%)    99.9%
 RED. MASS   0.5102        C  6 --  H 14           +5.6% ( 23.8%)    99.9%
 EFF. MASS   1.4485

 SYMMETRY NUMBER FOR POINT-GROUP C1  =  1


          SYSTEM IS A GROUND STATE


                                                                                                                                                                                                                                                 
 SJ000001113-1_T001S001I001C01: Free energy calculation                                                                                                                                                                                          


          MOLECULE IS NOT LINEAR

          THERE ARE 66 GENUINE VIBRATIONS IN THIS SYSTEM
          THIS THERMODYNAMICS CALCULATION IS LIMITED TO
          MOLECULES WHICH HAVE NO INTERNAL ROTATIONS




                    CALCULATED THERMODYNAMIC PROPERTIES
                                          *
   TEMP. (K)   PARTITION FUNCTION   H.O.F.    ENTHALPY  HEAT CAPACITY ENTROPY
                                   KCAL/MOL   CAL/MOLE    CAL/K/MOL  CAL/K/MOL


 298.00  VIB.     0.1678D+04                  6533.7227    47.4065    36.6812
         ROT.     0.2971D+07                   888.2813     2.9808    32.5988
         INT.     0.4985D+10                  7422.0040    50.3873    69.2800
         TRA.     0.3555D+28                  1480.4688     4.9680    42.3034
         TOT.                     -249.112    8902.4728    55.3553   111.5834

 200.00  VIB.     0.5144D+02                  2661.9136    31.2513    21.1402
         ROT.     0.1633D+07                   596.1620     2.9808    31.4101
         INT.     0.8403D+08                  3258.0756    34.2321    52.5502
         TRA.     0.1955D+28                   993.6033     4.9680    40.3223
         TOT.                     -253.763    4251.6788    39.2001    92.8725

 210.00  VIB.     0.7211D+02                  2983.1838    32.9988    22.7073
         ROT.     0.1757D+07                   625.9700     2.9808    31.5555
         INT.     0.1267D+09                  3609.1539    35.9796    54.2628
         TRA.     0.2103D+28                  1043.2834     4.9680    40.5647
         TOT.                     -253.362    4652.4373    40.9477    94.8275

 220.00  VIB.     0.1016D+03                  3321.8131    34.7232    24.2823
         ROT.     0.1884D+07                   655.7781     2.9808    31.6942
         INT.     0.1915D+09                  3977.5912    37.7040    55.9765
         TRA.     0.2255D+28                  1092.9636     4.9680    40.7958
         TOT.                     -252.944    5070.5548    42.6720    96.7723

 230.00  VIB.     0.1439D+03                  3677.5729    36.4250    25.8634
         ROT.     0.2014D+07                   685.5862     2.9808    31.8267
         INT.     0.2898D+09                  4363.1592    39.4058    57.6901
         TRA.     0.2411D+28                  1142.6437     4.9680    41.0166
         TOT.                     -252.509    5505.8029    44.3738    98.7067

 240.00  VIB.     0.2045D+03                  4050.2391    38.1045    27.4492
         ROT.     0.2147D+07                   715.3943     2.9808    31.9535
         INT.     0.4391D+09                  4765.6335    41.0854    59.4028
         TRA.     0.2569D+28                  1192.3239     4.9680    41.2281
         TOT.                     -252.057    5957.9574    46.0534   100.6308

 250.00  VIB.     0.2919D+03                  4439.5902    39.7620    29.0384
         ROT.     0.2283D+07                   745.2024     2.9808    32.0752
         INT.     0.6663D+09                  5184.7926    42.7428    61.1136
         TRA.     0.2732D+28                  1242.0041     4.9680    41.4309
         TOT.                     -251.588    6426.7967    47.7108   102.5445

 260.00  VIB.     0.4180D+03                  4845.4054    41.3974    30.6298
         ROT.     0.2421D+07                   775.0105     2.9808    32.1921
         INT.     0.1012D+10                  5620.4159    44.3782    62.8220
         TRA.     0.2897D+28                  1291.6842     4.9680    41.6257
         TOT.                     -251.102    6912.1001    49.3462   104.4477

 270.00  VIB.     0.6004D+03                  5267.4634    43.0105    32.2225
         ROT.     0.2562D+07                   804.8186     2.9808    32.3046
         INT.     0.1538D+10                  6072.2820    45.9913    64.5271
         TRA.     0.3066D+28                  1341.3644     4.9680    41.8132
         TOT.                     -250.601    7413.6464    50.9593   106.3404

 280.00  VIB.     0.8648D+03                  5705.5407    44.6012    33.8155
         ROT.     0.2706D+07                   834.6267     2.9808    32.4130
         INT.     0.2340D+10                  6540.1674    47.5820    66.2286
         TRA.     0.3238D+28                  1391.0445     4.9680    41.9939
         TOT.                     -250.083    7931.2119    52.5500   108.2224

 290.00  VIB.     0.1249D+04                  6159.4107    46.1690    35.4080
         ROT.     0.2852D+07                   864.4348     2.9808    32.5176
         INT.     0.3562D+10                  7023.8455    49.1498    67.9257
         TRA.     0.3413D+28                  1440.7247     4.9680    42.1682
         TOT.                     -249.550    8464.5702    54.1178   110.0939

 300.00  VIB.     0.1807D+04                  6628.8429    47.7135    36.9993
         ROT.     0.3001D+07                   894.2429     2.9808    32.6187
         INT.     0.5423D+10                  7523.0858    50.6944    69.6180
         TRA.     0.3591D+28                  1490.4049     4.9680    42.3366
         TOT.                     -249.001    9013.4907    55.6624   111.9547

 310.00  VIB.     0.2621D+04                  7113.6025    49.2344    38.5887
         ROT.     0.3152D+07                   924.0510     2.9808    32.7164
         INT.     0.8260D+10                  8037.6535    52.2152    71.3052
         TRA.     0.3772D+28                  1540.0850     4.9680    42.4995
         TOT.                     -248.437    9577.7386    57.1832   113.8047

 320.00  VIB.     0.3807D+04                  7613.4504    50.7311    40.1756
         ROT.     0.3306D+07                   953.8591     2.9808    32.8111
         INT.     0.1258D+11                  8567.3095    53.7119    72.9866
         TRA.     0.3956D+28                  1589.7652     4.9680    42.6573
         TOT.                     -247.857   10157.0747    58.6799   115.6439

 330.00  VIB.     0.5538D+04                  8128.1428    52.2033    41.7592
         ROT.     0.3462D+07                   983.6672     2.9808    32.9028
         INT.     0.1917D+11                  9111.8101    55.1841    74.6620
         TRA.     0.4143D+28                  1639.4454     4.9680    42.8102
         TOT.                     -247.263   10751.2554    60.1521   117.4722

 340.00  VIB.     0.8068D+04                  8657.4323    53.6505    43.3392
         ROT.     0.3620D+07                  1013.4753     2.9808    32.9918
         INT.     0.2921D+11                  9670.9077    56.6313    76.3310
         TRA.     0.4332D+28                  1689.1255     4.9680    42.9585
         TOT.                     -246.655   11360.0332    61.5993   119.2895

 350.00  VIB.     0.1177D+05                  9201.0676    55.0724    44.9150
         ROT.     0.3781D+07                  1043.2834     2.9808    33.0782
         INT.     0.4449D+11                 10244.3510    58.0532    77.9932
         TRA.     0.4525D+28                  1738.8057     4.9680    43.1025
         TOT.                     -246.031   11983.1567    63.0212   121.0956

 360.00  VIB.     0.1718D+05                  9758.7944    56.4687    46.4860
         ROT.     0.3944D+07                  1073.0915     2.9808    33.1622
         INT.     0.6777D+11                 10831.8859    59.4495    79.6482
         TRA.     0.4720D+28                  1788.4859     4.9680    43.2424
         TOT.                     -245.394   12620.3718    64.4175   122.8906

 370.00  VIB.     0.2511D+05                 10330.3560    57.8393    48.0520
         ROT.     0.4110D+07                  1102.8996     2.9808    33.2438
         INT.     0.1032D+12                 11433.2556    60.8201    81.2958
         TRA.     0.4918D+28                  1838.1660     4.9680    43.3785
         TOT.                     -244.743   13271.4216    65.7881   124.6744

 380.00  VIB.     0.3671D+05                 10915.4940    59.1840    49.6124
         ROT.     0.4278D+07                  1132.7077     2.9808    33.3233
         INT.     0.1571D+12                 12048.2017    62.1648    82.9357
         TRA.     0.5119D+28                  1887.8462     4.9680    43.5110
         TOT.                     -244.078   13936.0478    67.1328   126.4467

 390.00  VIB.     0.5372D+05                 11513.9488    60.5027    51.1668
         ROT.     0.4448D+07                  1162.5158     2.9808    33.4008
         INT.     0.2389D+12                 12676.4646    63.4835    84.5676
         TRA.     0.5322D+28                  1937.5263     4.9680    43.6401
         TOT.                     -243.401   14613.9909    68.4515   128.2076

 400.00  VIB.     0.7865D+05                 12125.4605    61.7954    52.7149
         ROT.     0.4620D+07                  1192.3239     2.9808    33.4762
         INT.     0.3633D+12                 13317.7844    64.7762    86.1912
         TRA.     0.5528D+28                  1987.2065     4.9680    43.7659
         TOT.                     -242.710   15304.9909    69.7442   129.9570

   *: NOTE: HEATS OF FORMATION ARE RELATIVE TO THE
             ELEMENTS IN THEIR STANDARD STATE AT 298K
              (=  Standard Enthalpy of Formation).
            Heat of Formation at T is calculated as [Escf + (HT - H298.15)-.

            Hvib:  Zero-point energy is not included.
                   Wi < 100 cm-1 are not included.
            Hrot = (3/2)RT
            Htra = (3/2)RT + pV = (5/2)RT

            Heat capacity is Cp, not Cv

                 See Section 8.20 in Manual for further information.   (by TH).

           FORCE CONSTANT IN CARTESIAN COORDINATES (Millidynes/A)

    ATOM   CHEMICAL       X               Y               Z
   NUMBER   SYMBOL  FORCE CONSTANT  FORCE CONSTANT  FORCE CONSTANT

      1       C       10.520518       11.266233        2.429773
      2       C       10.539787       10.872802        2.443452
      3       C       11.716920        8.910685        2.388910
      4       C       11.700654        9.074251        2.306069
      5       C        9.425430       11.355475        2.398334
      6       C        9.581368       10.704902        2.268854
      7       C       10.772763       10.873031        2.706572
      8       C       10.903820        8.969797        2.468177
      9       C       11.062134        9.669117        2.319540
     10       C       10.108854       10.655448        2.220742
     11       H        1.709869        3.318755        0.388550
     12       H        1.744233        3.296541        0.381043
     13       H        4.162946        0.835798        0.395406
     14       H        1.794108        3.356477        0.355947
     15       H        1.758577        3.173950        0.399304
     16       S        7.813232        6.983262        6.873332
     17       O        2.569028        0.680195        4.516937
     18       O        3.519345        3.469969        0.694342
     19       O        2.310230        0.697393        4.696281
     20       O        6.692115        0.763207        3.444261
     21       H        1.578849        0.132873        2.716666
     22       N        8.435029        9.702627        0.712830
     23       H        1.485681        3.620515        0.235048
     24       H        4.106731        0.990548        0.299843



 TOTAL CPU TIME:            12.57 SECONDS

 == MOPAC DONE ==
