 *******************************************************************************
 ** Site#:  958            For non-commercial use only         Version 9.015L **
 *******************************************************************************
 ** Cite this work as: MOPAC2009, James J. P. Stewart, Stewart Computational  **
 ** Chemistry, Version 9.015L web: HTTP://OpenMOPAC.net                       **
 *******************************************************************************
 **                                                                           **
 **                                MOPAC2009                                  **
 **                                                                           **
 *******************************************************************************

                            PM6 CALCULATION RESULTS


 *******************************************************************************
 *  CALCULATION DONE:                                Wed Sep  7 22:52:30 2011  *
 *  PM6      - The PM6 Hamiltonian to be used
 *  PDBOUT   - PRINT GEOMETY IN PDB FORMAT
 *  MOZYME   - USE LOCALIZED M.O.s IN SOLVING THE SCF EQUATIONS
 *
 *
 *
 *                 CHARGE ON SYSTEM =     0
 *
 *
 *
 *  EPS= 78.400
 *  RSOLV=  1.300
 *  LET      - OVERRIDE SOME SAFETY CHECKS
 *  XYZ      - CARTESIAN COORDINATE SYSTEM TO BE USED
 *  LBFGS    - USE THE LBFGS GEOMETRY OPTIMIZER
 *  1SCF     - DO 1 SCF AND THEN STOP 
 *  T=       - A TIME OF  0.3E+08 SECONDS REQUESTED
 *  DUMP=N   - RESTART FILE WRITTEN EVERY  4320.000 SECONDS
 *  DDMIN=   - MINIMUM TRUST RADIUS  0.000 ANG/RAD
 *  GNORM=   - EXIT WHEN GRADIENT NORM DROPS BELOW .150    
 *  RELSCF   - DEFAULT SCF CRITERION MULTIPLIED BY   0.100    
 *             (DEFAULT SCFCRT= 0.00010)
 *  MULLIK   - THE MULLIKEN ANALYSIS TO BE PERFORMED
 *******************************************************************************
 PM6 T=31426102 DUMP=4320 XYZ EPS=78.40 RSOLV=1.30 MULLIK LBFGS MOZYME PDBOUT +
 CHARGE=0 RELSCF=0.1 LET DDMIN=0.0 GNORM=0.15 1SCF
 SJ000002349-1_T001S001I001C04_001: Geometry optimization step

   ATOM   CHEMICAL          X               Y              Z
  NUMBER   SYMBOL      (ANGSTROMS)     (ANGSTROMS)    (ANGSTROMS)
 
     1       C         -4.6720000  *  -20.792000  *   10.282000  *
     2       C         -3.9890000  *  -21.835000  *    9.397000  *
     3       C         -4.0100000  *  -23.183000  *   10.080000  *
     4       C         -5.0280000  *  -23.511000  *   10.897000  *
     5       C         -5.0430000  *  -24.855000  *   11.580000  *
     6       C         -3.6610000  *  -25.461000  *   11.592000  *
     7       C         -2.7240000  *  -25.013000  *   10.734000  *
     8       C         -1.3370000  *  -25.611000  *   10.748000  *
     9       C         -0.9760000  *  -26.058000  *   12.165000  *
    10       C         -2.0070000  *  -27.112000  *   12.576000  *
    11       C         -3.3740000  *  -26.489000  *   12.508000  *
    12       O         -4.2460000  *  -26.880000  *   13.258000  *
    13       O         -3.0000000  *  -24.039000  *    9.853000  *
    14       C         -6.0880000  *  -22.616000  *   11.131000  *
    15       O         -6.9990000  *  -22.947000  *   11.864000  *
    16       C         -6.1150000  *  -21.256000  *   10.488000  *
    17       H         -4.5170000  *  -21.904000  *    8.446000  *
    18       H         -2.9560000  *  -21.537000  *    9.216000  *
    19       H         -5.3900000  *  -24.733000  *   12.606000  *
    20       H         -1.3080000  *  -26.471000  *   10.079000  *
    21       H         -0.6180000  *  -24.865000  *   10.409000  *
    22       H         -1.9560000  *  -27.960000  *   11.893000  *
    23       H         -1.8050000  *  -27.446000  *   13.593000  *
    24       H         -6.6390000  *  -20.553000  *   11.137000  *
    25       H         -6.6230000  *  -21.315000  *    9.525000  *
    26       C         -5.9810000  *  -25.776000  *   10.844000  *
    27       C         -7.2130000  *  -26.097000  *   11.396000  *
    28       C         -8.0760000  *  -26.944000  *   10.719000  *
    29       C         -7.7050000  *  -27.470000  *    9.491000  *
    30       H         -9.0350000  *  -27.193000  *   11.147000  *
    31       C         -6.4720000  *  -27.147000  *    8.943000  *
    32       C         -5.6160000  *  -26.298000  *    9.618000  *
    33       H         -6.1830000  *  -27.557000  *    7.987000  *
    34       H         -4.6570000  *  -26.047000  *    9.189000  *
    35       O         -7.5740000  *  -25.579000  *   12.600000  *
    36       H         -7.2600000  *  -24.676000  *   12.750000  *
    37       O         -8.5490000  *  -28.301000  *    8.824000  *
    38       H         -8.1010000  *  -28.975000  *    8.296000  *
    39       C         -3.9550000  *  -20.701000  *   11.632000  *
    40       H         -4.6680000  *  -20.891000  *   12.434000  *
    41       H         -3.1580000  *  -21.443000  *   11.670000  *
    42       H         -3.5310000  *  -19.705000  *   11.751000  *
    43       C         -4.6530000  *  -19.427000  *    9.589000  *
    44       H         -3.8420000  *  -18.825000  *    9.995000  *
    45       H         -4.5030000  *  -19.566000  *    8.519000  *
    46       H         -5.6030000  *  -18.921000  *    9.761000  *
    47       C          0.4280000  *  -26.666000  *   12.180000  *
    48       H          1.0720000  *  -26.109000  *   11.498000  *
    49       H          0.8360000  *  -26.615000  *   13.189000  *
    50       H          0.3760000  *  -27.708000  *   11.861000  *
    51       C         -1.0370000  *  -24.863000  *   13.120000  *
    52       H         -0.0720000  *  -24.743000  *   13.613000  *
    53       H         -1.2730000  *  -23.961000  *   12.557000  *
    54       H         -1.8100000  *  -25.036000  *   13.869000  *
 


          CARTESIAN COORDINATES 

    NO.       ATOM         X         Y         Z

     1         C       -4.6720  -20.7920   10.2820
     2         C       -3.9890  -21.8350    9.3970
     3         C       -4.0100  -23.1830   10.0800
     4         C       -5.0280  -23.5110   10.8970
     5         C       -5.0430  -24.8550   11.5800
     6         C       -3.6610  -25.4610   11.5920
     7         C       -2.7240  -25.0130   10.7340
     8         C       -1.3370  -25.6110   10.7480
     9         C       -0.9760  -26.0580   12.1650
    10         C       -2.0070  -27.1120   12.5760
    11         C       -3.3740  -26.4890   12.5080
    12         O       -4.2460  -26.8800   13.2580
    13         O       -3.0000  -24.0390    9.8530
    14         C       -6.0880  -22.6160   11.1310
    15         O       -6.9990  -22.9470   11.8640
    16         C       -6.1150  -21.2560   10.4880
    17         H       -4.5170  -21.9040    8.4460
    18         H       -2.9560  -21.5370    9.2160
    19         H       -5.3900  -24.7330   12.6060
    20         H       -1.3080  -26.4710   10.0790
    21         H       -0.6180  -24.8650   10.4090
    22         H       -1.9560  -27.9600   11.8930
    23         H       -1.8050  -27.4460   13.5930
    24         H       -6.6390  -20.5530   11.1370
    25         H       -6.6230  -21.3150    9.5250
    26         C       -5.9810  -25.7760   10.8440
    27         C       -7.2130  -26.0970   11.3960
    28         C       -8.0760  -26.9440   10.7190
    29         C       -7.7050  -27.4700    9.4910
    30         H       -9.0350  -27.1930   11.1470
    31         C       -6.4720  -27.1470    8.9430
    32         C       -5.6160  -26.2980    9.6180
    33         H       -6.1830  -27.5570    7.9870
    34         H       -4.6570  -26.0470    9.1890
    35         O       -7.5740  -25.5790   12.6000
    36         H       -7.2600  -24.6760   12.7500
    37         O       -8.5490  -28.3010    8.8240
    38         H       -8.1010  -28.9750    8.2960
    39         C       -3.9550  -20.7010   11.6320
    40         H       -4.6680  -20.8910   12.4340
    41         H       -3.1580  -21.4430   11.6700
    42         H       -3.5310  -19.7050   11.7510
    43         C       -4.6530  -19.4270    9.5890
    44         H       -3.8420  -18.8250    9.9950
    45         H       -4.5030  -19.5660    8.5190
    46         H       -5.6030  -18.9210    9.7610
    47         C        0.4280  -26.6660   12.1800
    48         H        1.0720  -26.1090   11.4980
    49         H        0.8360  -26.6150   13.1890
    50         H        0.3760  -27.7080   11.8610
    51         C       -1.0370  -24.8630   13.1200
    52         H       -0.0720  -24.7430   13.6130
    53         H       -1.2730  -23.9610   12.5570
    54         H       -1.8100  -25.0360   13.8690

 General Reference for PM6:
 "Optimization of Parameters for Semiempirical Methods V: Modification of NDDO Approximations
 and Application to 70 Elements", J. J. P. Stewart, J. Mol. Mod., 13, 1173-1213 (2007)
 URL: http://www.springerlink.com/content/ar33482301010477/fulltext.pdf

           Empirical Formula: C23 H26 O5  =    54 atoms



      MOLECULAR POINT GROUP   :   C1  
 
   NUMBER AND TYPES OF BONDS IDENTIFIED
 
         SIGMA BONDS               57
         LONE PAIRS                10
         NORMAL PI BONDS            6
         AROMATIC RING PI BONDS     1
 

                  Ramachandran Angles
              Residue    phi    psi  omega

  
  SCF CRITERION =    0.1000E-02

 -------------------------------------------------------------------------------
 PM6 T=31426102 DUMP=4320 XYZ EPS=78.40 RSOLV=1.30 MULLIK LBFGS MOZYME PDBOUT +
 CHARGE=0 RELSCF=0.1 LET DDMIN=0.0 GNORM=0.15 1SCF
 SJ000002349-1_T001S001I001C04_001: Geometry optimization step



     1SCF WAS SPECIFIED, SO BFGS WAS NOT USED                 
     SCF FIELD WAS ACHIEVED                                   


                               PM6     CALCULATION
                                                       MOPAC2009 (Version: 9.015L)
                                                       Wed Sep  7 22:52:31 2011




          FINAL HEAT OF FORMATION =       -193.55842 KCAL =    -809.84842 KJ
          VAN DER WAALS AREA      =        362.04 SQUARE ANGSTROMS


          TOTAL ENERGY            =      -4641.27424 EV
          ELECTRONIC ENERGY       =     -41705.27247 EV
          CORE-CORE REPULSION     =      37063.99823 EV
          DIELECTRIC ENERGY       =         -1.41855 EV
          COSMO AREA              =        362.04 SQUARE ANGSTROMS
          COSMO VOLUME            =        448.13 CUBIC ANGSTROMS

          NO. OF FILLED LEVELS    =         74
          MOLECULAR WEIGHT        =        382.455

          MOLECULAR DIMENSIONS (Angstroms)

            Atom       Atom       Distance
            H    46    H    49    10.60234
            H    42    H    38    10.52235
            O    35    H    21     5.54378


          SCF CALCULATIONS        =          2
          COMPUTATION TIME        =          0.556 SECONDS




   ATOM           CHEMICAL             X               Y              Z
  NUMBER           SYMBOL         (ANGSTROMS)     (ANGSTROMS)    (ANGSTROMS)
 
     1       C(     1  C     )   -4.6720000  *  -20.792000  *   10.282000  *
     2       C(     2  C     )   -3.9890000  *  -21.835000  *    9.397000  *
     3       C(     3  C     )   -4.0100000  *  -23.183000  *   10.080000  *
     4       C(     4  C     )   -5.0280000  *  -23.511000  *   10.897000  *
     5       C(     5  C     )   -5.0430000  *  -24.855000  *   11.580000  *
     6       C(     6  C     )   -3.6610000  *  -25.461000  *   11.592000  *
     7       C(     7  C     )   -2.7240000  *  -25.013000  *   10.734000  *
     8       C(     8  C     )   -1.3370000  *  -25.611000  *   10.748000  *
     9       C(     9  C     )   -0.9760000  *  -26.058000  *   12.165000  *
    10       C(    10  C     )   -2.0070000  *  -27.112000  *   12.576000  *
    11       C(    11  C     )   -3.3740000  *  -26.489000  *   12.508000  *
    12       O(    12  O     )   -4.2460000  *  -26.880000  *   13.258000  *
    13       O(    13  O     )   -3.0000000  *  -24.039000  *    9.853000  *
    14       C(    14  C     )   -6.0880000  *  -22.616000  *   11.131000  *
    15       O(    15  O     )   -6.9990000  *  -22.947000  *   11.864000  *
    16       C(    16  C     )   -6.1150000  *  -21.256000  *   10.488000  *
    17       H(    17  C     )   -4.5170000  *  -21.904000  *    8.446000  *
    18       H(    18  C     )   -2.9560000  *  -21.537000  *    9.216000  *
    19       H(    19  C     )   -5.3900000  *  -24.733000  *   12.606000  *
    20       H(    20  C     )   -1.3080000  *  -26.471000  *   10.079000  *
    21       H(    21  C     )   -0.6180000  *  -24.865000  *   10.409000  *
    22       H(    22  C     )   -1.9560000  *  -27.960000  *   11.893000  *
    23       H(    23  C     )   -1.8050000  *  -27.446000  *   13.593000  *
    24       H(    24  C     )   -6.6390000  *  -20.553000  *   11.137000  *
    25       H(    25  C     )   -6.6230000  *  -21.315000  *    9.525000  *
    26       C(    26  C     )   -5.9810000  *  -25.776000  *   10.844000  *
    27       C(    27  C     )   -7.2130000  *  -26.097000  *   11.396000  *
    28       C(    28  C     )   -8.0760000  *  -26.944000  *   10.719000  *
    29       C(    29  C     )   -7.7050000  *  -27.470000  *    9.491000  *
    30       H(    30  C     )   -9.0350000  *  -27.193000  *   11.147000  *
    31       C(    31  C     )   -6.4720000  *  -27.147000  *    8.943000  *
    32       C(    32  C     )   -5.6160000  *  -26.298000  *    9.618000  *
    33       H(    33  C     )   -6.1830000  *  -27.557000  *    7.987000  *
    34       H(    34  C     )   -4.6570000  *  -26.047000  *    9.189000  *
    35       O(    35  O     )   -7.5740000  *  -25.579000  *   12.600000  *
    36       H(    36  O     )   -7.2600000  *  -24.676000  *   12.750000  *
    37       O(    37  O     )   -8.5490000  *  -28.301000  *    8.824000  *
    38       H(    38  O     )   -8.1010000  *  -28.975000  *    8.296000  *
    39       C(    39  C     )   -3.9550000  *  -20.701000  *   11.632000  *
    40       H(    40  C     )   -4.6680000  *  -20.891000  *   12.434000  *
    41       H(    41  C     )   -3.1580000  *  -21.443000  *   11.670000  *
    42       H(    42  C     )   -3.5310000  *  -19.705000  *   11.751000  *
    43       C(    43  C     )   -4.6530000  *  -19.427000  *    9.589000  *
    44       H(    44  C     )   -3.8420000  *  -18.825000  *    9.995000  *
    45       H(    45  C     )   -4.5030000  *  -19.566000  *    8.519000  *
    46       H(    46  C     )   -5.6030000  *  -18.921000  *    9.761000  *
    47       C(    47  C     )    0.4280000  *  -26.666000  *   12.180000  *
    48       H(    48  C     )    1.0720000  *  -26.109000  *   11.498000  *
    49       H(    49  C     )    0.8360000  *  -26.615000  *   13.189000  *
    50       H(    50  C     )    0.3760000  *  -27.708000  *   11.861000  *
    51       C(    51  C     )   -1.0370000  *  -24.863000  *   13.120000  *
    52       H(    52  C     )   -0.0720000  *  -24.743000  *   13.613000  *
    53       H(    53  C     )   -1.2730000  *  -23.961000  *   12.557000  *
    54       H(    54  C     )   -1.8100000  *  -25.036000  *   13.869000  *

           Empirical Formula: C23 H26 O5  =    54 atoms



              NET ATOMIC CHARGES AND DIPOLE CONTRIBUTIONS

  ATOM NO.   TYPE          CHARGE      No. of ELECS.   s-Pop       p-Pop       
    1          C           0.285878        3.7141     1.06359     2.65053
    2          C          -0.425386        4.4254     1.10854     3.31684
    3          C           0.454746        3.5453     1.10162     2.44364
    4          C          -0.502752        4.5028     1.10994     3.39281
    5          C           0.143227        3.8568     1.04783     2.80894
    6          C          -0.485817        4.4858     1.11030     3.37552
    7          C           0.437125        3.5629     1.10155     2.46132
    8          C          -0.422387        4.4224     1.10756     3.31482
    9          C           0.286840        3.7132     1.06344     2.64972
   10          C          -0.531595        4.5316     1.11828     3.41332
   11          C           0.668144        3.3319     1.07430     2.25756
   12          O          -0.634444        6.6344     1.84426     4.79018
   13          O          -0.342031        6.3420     1.78271     4.55932
   14          C           0.671593        3.3284     1.07583     2.25258
   15          O          -0.645358        6.6454     1.84138     4.80398
   16          C          -0.525739        4.5257     1.11827     3.40747
   17          H           0.208694        0.7913     0.79131
   18          H           0.201839        0.7982     0.79816
   19          H           0.142826        0.8572     0.85717
   20          H           0.207179        0.7928     0.79282
   21          H           0.199858        0.8001     0.80014
   22          H           0.208332        0.7917     0.79167
   23          H           0.203665        0.7963     0.79633
   24          H           0.204070        0.7959     0.79593
   25          H           0.210807        0.7892     0.78919
   26          C          -0.282231        4.2822     1.09665     3.18558
   27          C           0.424232        3.5758     1.05920     2.51657
   28          C          -0.479283        4.4793     1.09743     3.38185
   29          C           0.426784        3.5732     1.05908     2.51413
   30          H           0.207733        0.7923     0.79227
   31          C          -0.443830        4.4438     1.10687     3.33696
   32          C           0.052079        3.9479     1.09519     2.85273
   33          H           0.193648        0.8064     0.80635
   34          H           0.151933        0.8481     0.84807
   35          O          -0.545511        6.5455     1.77939     4.76612
   36          H           0.372677        0.6273     0.62732
   37          O          -0.530679        6.5307     1.77900     4.75168
   38          H           0.371288        0.6287     0.62871
   39          C          -0.557836        4.5578     1.09803     3.45981
   40          H           0.171955        0.8280     0.82804
   41          H           0.166677        0.8333     0.83332
   42          H           0.177281        0.8227     0.82272
   43          C          -0.547301        4.5473     1.09607     3.45123
   44          H           0.174444        0.8256     0.82556
   45          H           0.172164        0.8278     0.82784
   46          H           0.174079        0.8259     0.82592
   47          C          -0.545247        4.5452     1.09572     3.44953
   48          H           0.172196        0.8278     0.82780
   49          H           0.174822        0.8252     0.82518
   50          H           0.171008        0.8290     0.82899
   51          C          -0.557314        4.5573     1.09745     3.45987
   52          H           0.176957        0.8230     0.82304
   53          H           0.167398        0.8326     0.83260
   54          H           0.170561        0.8294     0.82944


          CARTESIAN COORDINATES 

    NO.       ATOM               X         Y         Z

     1         C                 -4.6720  -20.7920   10.2820
     2         C                 -3.9890  -21.8350    9.3970
     3         C                 -4.0100  -23.1830   10.0800
     4         C                 -5.0280  -23.5110   10.8970
     5         C                 -5.0430  -24.8550   11.5800
     6         C                 -3.6610  -25.4610   11.5920
     7         C                 -2.7240  -25.0130   10.7340
     8         C                 -1.3370  -25.6110   10.7480
     9         C                 -0.9760  -26.0580   12.1650
    10         C                 -2.0070  -27.1120   12.5760
    11         C                 -3.3740  -26.4890   12.5080
    12         O                 -4.2460  -26.8800   13.2580
    13         O                 -3.0000  -24.0390    9.8530
    14         C                 -6.0880  -22.6160   11.1310
    15         O                 -6.9990  -22.9470   11.8640
    16         C                 -6.1150  -21.2560   10.4880
    17         H                 -4.5170  -21.9040    8.4460
    18         H                 -2.9560  -21.5370    9.2160
    19         H                 -5.3900  -24.7330   12.6060
    20         H                 -1.3080  -26.4710   10.0790
    21         H                 -0.6180  -24.8650   10.4090
    22         H                 -1.9560  -27.9600   11.8930
    23         H                 -1.8050  -27.4460   13.5930
    24         H                 -6.6390  -20.5530   11.1370
    25         H                 -6.6230  -21.3150    9.5250
    26         C                 -5.9810  -25.7760   10.8440
    27         C                 -7.2130  -26.0970   11.3960
    28         C                 -8.0760  -26.9440   10.7190
    29         C                 -7.7050  -27.4700    9.4910
    30         H                 -9.0350  -27.1930   11.1470
    31         C                 -6.4720  -27.1470    8.9430
    32         C                 -5.6160  -26.2980    9.6180
    33         H                 -6.1830  -27.5570    7.9870
    34         H                 -4.6570  -26.0470    9.1890
    35         O                 -7.5740  -25.5790   12.6000
    36         H                 -7.2600  -24.6760   12.7500
    37         O                 -8.5490  -28.3010    8.8240
    38         H                 -8.1010  -28.9750    8.2960
    39         C                 -3.9550  -20.7010   11.6320
    40         H                 -4.6680  -20.8910   12.4340
    41         H                 -3.1580  -21.4430   11.6700
    42         H                 -3.5310  -19.7050   11.7510
    43         C                 -4.6530  -19.4270    9.5890
    44         H                 -3.8420  -18.8250    9.9950
    45         H                 -4.5030  -19.5660    8.5190
    46         H                 -5.6030  -18.9210    9.7610
    47         C                  0.4280  -26.6660   12.1800
    48         H                  1.0720  -26.1090   11.4980
    49         H                  0.8360  -26.6150   13.1890
    50         H                  0.3760  -27.7080   11.8610
    51         C                 -1.0370  -24.8630   13.1200
    52         H                 -0.0720  -24.7430   13.6130
    53         H                 -1.2730  -23.9610   12.5570
    54         H                 -1.8100  -25.0360   13.8690


          ATOMIC ORBITAL ELECTRON POPULATIONS

   1.06359   0.86405   0.89120   0.89528   1.10854   1.19879   0.98476   1.13329
   1.10162   0.78121   0.82752   0.83491   1.10994   1.09887   1.10191   1.19203
   1.04783   0.89860   0.87052   1.03982   1.11030   1.06526   1.15879   1.15147
   1.10155   0.92075   0.75867   0.78190   1.10756   1.01666   1.16582   1.13234
   1.06344   0.90079   0.88897   0.85997   1.11828   1.06262   1.13962   1.21108
   1.07430   0.81658   0.72983   0.71114   1.84426   1.58915   1.67636   1.52467
   1.78271   1.56151   1.45392   1.54389   1.07583   0.75692   0.82439   0.67127
   1.84138   1.50836   1.81197   1.48364   1.11827   1.12454   1.09189   1.19104
   0.79131   0.79816   0.85717   0.79282   0.80014   0.79167   0.79633   0.79593
   0.78919   1.09665   1.02649   1.11358   1.04551   1.05920   0.89469   0.86116
   0.76072   1.09743   1.14565   1.18476   1.05144   1.05908   0.84082   0.81628
   0.85703   0.79227   1.10687   1.05176   1.14799   1.13721   1.09519   1.01760
   0.89751   0.93762   0.80635   0.84807   1.77939   1.82312   1.48057   1.46243
   0.62732   1.77900   1.53315   1.53581   1.68273   0.62871   1.09803   1.16445
   1.19956   1.09580   0.82804   0.83332   0.82272   1.09607   1.19716   1.08515
   1.16892   0.82556   0.82784   0.82592   1.09572   1.08042   1.17279   1.19632
   0.82780   0.82518   0.82899   1.09745   1.19989   1.11443   1.14555   0.82304
   0.83260   0.82944

           MULLIKEN POPULATION ANALYSIS



        MULLIKEN POPULATIONS AND CHARGES

      NO.  ATOM   POPULATION      CHARGE
        1    C     3.685492      0.314508
        2    C     4.545932     -0.545932
        3    C     3.520885      0.479115
        4    C     4.554232     -0.554232
        5    C     3.850958      0.149042
        6    C     4.535744     -0.535744
        7    C     3.540316      0.459684
        8    C     4.541913     -0.541913
        9    C     3.684389      0.315611
       10    C     4.663341     -0.663341
       11    C     3.279297      0.720703
       12    O     6.659686     -0.659686
       13    O     6.389082     -0.389082
       14    C     3.276454      0.723546
       15    O     6.673162     -0.673162
       16    C     4.656918     -0.656918
       17    H     0.733745      0.266255
       18    H     0.740262      0.259738
       19    H     0.812369      0.187631
       20    H     0.735382      0.264618
       21    H     0.742924      0.257076
       22    H     0.735118      0.264882
       23    H     0.738462      0.261538
       24    H     0.738426      0.261574
       25    H     0.731914      0.268086
       26    C     4.309624     -0.309624
       27    C     3.548220      0.451780
       28    C     4.553093     -0.553093
       29    C     3.548043      0.451957
       30    H     0.727234      0.272766
       31    C     4.520741     -0.520741
       32    C     3.972641      0.027359
       33    H     0.745558      0.254442
       34    H     0.798813      0.201187
       35    O     6.596510     -0.596510
       36    H     0.591088      0.408912
       37    O     6.582434     -0.582434
       38    H     0.593905      0.406095
       39    C     4.703631     -0.703631
       40    H     0.780015      0.219985
       41    H     0.786658      0.213342
       42    H     0.773547      0.226453
       43    C     4.694316     -0.694316
       44    H     0.777083      0.222917
       45    H     0.779484      0.220516
       46    H     0.777416      0.222584
       47    C     4.692073     -0.692073
       48    H     0.779656      0.220344
       49    H     0.776507      0.223493
       50    H     0.780756      0.219244
       51    C     4.703209     -0.703209
       52    H     0.773838      0.226162
       53    H     0.785666      0.214334
       54    H     0.781839      0.218161



 TOTAL CPU TIME:             0.59 SECONDS

 == MOPAC DONE ==
 *******************************************************************************
 ** Site#:  958            For non-commercial use only         Version 9.015L **
 *******************************************************************************
 ** Cite this work as: MOPAC2009, James J. P. Stewart, Stewart Computational  **
 ** Chemistry, Version 9.015L web: HTTP://OpenMOPAC.net                       **
 *******************************************************************************
 **                                                                           **
 **                                MOPAC2009                                  **
 **                                                                           **
 *******************************************************************************

                            PM6 CALCULATION RESULTS


 *******************************************************************************
 *  CALCULATION DONE:                                Wed Sep  7 22:52:31 2011  *
 *  PM6      - The PM6 Hamiltonian to be used
 *  GEO-OK   - OVERRIDE INTERATOMIC DISTANCE CHECK
 *  MOZYME   - USE LOCALIZED M.O.s IN SOLVING THE SCF EQUATIONS
 *
 *
 *
 *                 CHARGE ON SYSTEM =     0
 *
 *
 *
 *  EPS= 78.400
 *  RSOLV=  1.300
 *  OLDGEO   - PREVIOUS GEOMETRY TO BE USED
 *  T=       - A TIME OF 172800.0 SECONDS REQUESTED
 *  DUMP=N   - RESTART FILE WRITTEN EVERY  4320.000 SECONDS
 *  RELSCF   - DEFAULT SCF CRITERION MULTIPLIED BY   0.100    
 *             (DEFAULT SCFCRT= 0.00010)
 *  THERMO   - THERMODYNAMIC QUANTITIES TO BE CALCULATED
 *******************************************************************************
 PM6 DUMP=4320 MOZYME RELSCF=0.1 THERMO EPS=78.40 RSOLV=1.30 +
 OLDGEO GEO-OK CHARGE=0
 SJ000002349-1_T001S001I001C04_001: Free energy calculation

   ATOM           CHEMICAL             X               Y              Z
  NUMBER           SYMBOL         (ANGSTROMS)     (ANGSTROMS)    (ANGSTROMS)
 
     1       C(     1  C     )   -4.6720000  *  -20.792000  *   10.282000  *
     2       C(     2  C     )   -3.9890000  *  -21.835000  *    9.397000  *
     3       C(     3  C     )   -4.0100000  *  -23.183000  *   10.080000  *
     4       C(     4  C     )   -5.0280000  *  -23.511000  *   10.897000  *
     5       C(     5  C     )   -5.0430000  *  -24.855000  *   11.580000  *
     6       C(     6  C     )   -3.6610000  *  -25.461000  *   11.592000  *
     7       C(     7  C     )   -2.7240000  *  -25.013000  *   10.734000  *
     8       C(     8  C     )   -1.3370000  *  -25.611000  *   10.748000  *
     9       C(     9  C     )   -0.9760000  *  -26.058000  *   12.165000  *
    10       C(    10  C     )   -2.0070000  *  -27.112000  *   12.576000  *
    11       C(    11  C     )   -3.3740000  *  -26.489000  *   12.508000  *
    12       O(    12  O     )   -4.2460000  *  -26.880000  *   13.258000  *
    13       O(    13  O     )   -3.0000000  *  -24.039000  *    9.853000  *
    14       C(    14  C     )   -6.0880000  *  -22.616000  *   11.131000  *
    15       O(    15  O     )   -6.9990000  *  -22.947000  *   11.864000  *
    16       C(    16  C     )   -6.1150000  *  -21.256000  *   10.488000  *
    17       H(    17  C     )   -4.5170000  *  -21.904000  *    8.446000  *
    18       H(    18  C     )   -2.9560000  *  -21.537000  *    9.216000  *
    19       H(    19  C     )   -5.3900000  *  -24.733000  *   12.606000  *
    20       H(    20  C     )   -1.3080000  *  -26.471000  *   10.079000  *
    21       H(    21  C     )   -0.6180000  *  -24.865000  *   10.409000  *
    22       H(    22  C     )   -1.9560000  *  -27.960000  *   11.893000  *
    23       H(    23  C     )   -1.8050000  *  -27.446000  *   13.593000  *
    24       H(    24  C     )   -6.6390000  *  -20.553000  *   11.137000  *
    25       H(    25  C     )   -6.6230000  *  -21.315000  *    9.525000  *
    26       C(    26  C     )   -5.9810000  *  -25.776000  *   10.844000  *
    27       C(    27  C     )   -7.2130000  *  -26.097000  *   11.396000  *
    28       C(    28  C     )   -8.0760000  *  -26.944000  *   10.719000  *
    29       C(    29  C     )   -7.7050000  *  -27.470000  *    9.491000  *
    30       H(    30  C     )   -9.0350000  *  -27.193000  *   11.147000  *
    31       C(    31  C     )   -6.4720000  *  -27.147000  *    8.943000  *
    32       C(    32  C     )   -5.6160000  *  -26.298000  *    9.618000  *
    33       H(    33  C     )   -6.1830000  *  -27.557000  *    7.987000  *
    34       H(    34  C     )   -4.6570000  *  -26.047000  *    9.189000  *
    35       O(    35  O     )   -7.5740000  *  -25.579000  *   12.600000  *
    36       H(    36  O     )   -7.2600000  *  -24.676000  *   12.750000  *
    37       O(    37  O     )   -8.5490000  *  -28.301000  *    8.824000  *
    38       H(    38  O     )   -8.1010000  *  -28.975000  *    8.296000  *
    39       C(    39  C     )   -3.9550000  *  -20.701000  *   11.632000  *
    40       H(    40  C     )   -4.6680000  *  -20.891000  *   12.434000  *
    41       H(    41  C     )   -3.1580000  *  -21.443000  *   11.670000  *
    42       H(    42  C     )   -3.5310000  *  -19.705000  *   11.751000  *
    43       C(    43  C     )   -4.6530000  *  -19.427000  *    9.589000  *
    44       H(    44  C     )   -3.8420000  *  -18.825000  *    9.995000  *
    45       H(    45  C     )   -4.5030000  *  -19.566000  *    8.519000  *
    46       H(    46  C     )   -5.6030000  *  -18.921000  *    9.761000  *
    47       C(    47  C     )    0.4280000  *  -26.666000  *   12.180000  *
    48       H(    48  C     )    1.0720000  *  -26.109000  *   11.498000  *
    49       H(    49  C     )    0.8360000  *  -26.615000  *   13.189000  *
    50       H(    50  C     )    0.3760000  *  -27.708000  *   11.861000  *
    51       C(    51  C     )   -1.0370000  *  -24.863000  *   13.120000  *
    52       H(    52  C     )   -0.0720000  *  -24.743000  *   13.613000  *
    53       H(    53  C     )   -1.2730000  *  -23.961000  *   12.557000  *
    54       H(    54  C     )   -1.8100000  *  -25.036000  *   13.869000  *
 


          CARTESIAN COORDINATES 

    NO.       ATOM         X         Y         Z

     1         C       -4.6720  -20.7920   10.2820
     2         C       -3.9890  -21.8350    9.3970
     3         C       -4.0100  -23.1830   10.0800
     4         C       -5.0280  -23.5110   10.8970
     5         C       -5.0430  -24.8550   11.5800
     6         C       -3.6610  -25.4610   11.5920
     7         C       -2.7240  -25.0130   10.7340
     8         C       -1.3370  -25.6110   10.7480
     9         C       -0.9760  -26.0580   12.1650
    10         C       -2.0070  -27.1120   12.5760
    11         C       -3.3740  -26.4890   12.5080
    12         O       -4.2460  -26.8800   13.2580
    13         O       -3.0000  -24.0390    9.8530
    14         C       -6.0880  -22.6160   11.1310
    15         O       -6.9990  -22.9470   11.8640
    16         C       -6.1150  -21.2560   10.4880
    17         H       -4.5170  -21.9040    8.4460
    18         H       -2.9560  -21.5370    9.2160
    19         H       -5.3900  -24.7330   12.6060
    20         H       -1.3080  -26.4710   10.0790
    21         H       -0.6180  -24.8650   10.4090
    22         H       -1.9560  -27.9600   11.8930
    23         H       -1.8050  -27.4460   13.5930
    24         H       -6.6390  -20.5530   11.1370
    25         H       -6.6230  -21.3150    9.5250
    26         C       -5.9810  -25.7760   10.8440
    27         C       -7.2130  -26.0970   11.3960
    28         C       -8.0760  -26.9440   10.7190
    29         C       -7.7050  -27.4700    9.4910
    30         H       -9.0350  -27.1930   11.1470
    31         C       -6.4720  -27.1470    8.9430
    32         C       -5.6160  -26.2980    9.6180
    33         H       -6.1830  -27.5570    7.9870
    34         H       -4.6570  -26.0470    9.1890
    35         O       -7.5740  -25.5790   12.6000
    36         H       -7.2600  -24.6760   12.7500
    37         O       -8.5490  -28.3010    8.8240
    38         H       -8.1010  -28.9750    8.2960
    39         C       -3.9550  -20.7010   11.6320
    40         H       -4.6680  -20.8910   12.4340
    41         H       -3.1580  -21.4430   11.6700
    42         H       -3.5310  -19.7050   11.7510
    43         C       -4.6530  -19.4270    9.5890
    44         H       -3.8420  -18.8250    9.9950
    45         H       -4.5030  -19.5660    8.5190
    46         H       -5.6030  -18.9210    9.7610
    47         C        0.4280  -26.6660   12.1800
    48         H        1.0720  -26.1090   11.4980
    49         H        0.8360  -26.6150   13.1890
    50         H        0.3760  -27.7080   11.8610
    51         C       -1.0370  -24.8630   13.1200
    52         H       -0.0720  -24.7430   13.6130
    53         H       -1.2730  -23.9610   12.5570
    54         H       -1.8100  -25.0360   13.8690

 General Reference for PM6:
 "Optimization of Parameters for Semiempirical Methods V: Modification of NDDO Approximations
 and Application to 70 Elements", J. J. P. Stewart, J. Mol. Mod., 13, 1173-1213 (2007)
 URL: http://www.springerlink.com/content/ar33482301010477/fulltext.pdf

           Empirical Formula: C23 H26 O5  =    54 atoms



      MOLECULAR POINT GROUP   :   C1  
 
   NUMBER AND TYPES OF BONDS IDENTIFIED
 
         SIGMA BONDS               57
         LONE PAIRS                10
         NORMAL PI BONDS            6
         AROMATIC RING PI BONDS     1
 
  SCF CRITERION =    0.1000E-02


          HEAT OF FORMATION =    -193.558415 KCALS/MOLE


          INTERNAL COORDINATE DERIVATIVES

   NUMBER  ATOM       BOND         ANGLE      DIHEDRAL

     1       C
     2       C     11.080359
     3       C      9.194614     3.890434
     4       C    -28.915026   -21.865683    13.775672
     5       C     34.676761    23.219973   -23.633550
     6       C    -40.394202   -17.607996    21.492644
     7       C    -11.858261     4.933411    -2.441512
     8       C     17.908016    47.312464   -17.926351
     9       C    -21.561348   -41.905165    18.735508
    10       C     16.589420    26.950783   -19.994387
    11       C     -3.027921    -5.947736    13.628093
    12       O     10.419638     9.521317    -3.662052
    13       O    -10.977908   -47.776229     7.474717
    14       C     13.296370   -35.283627   -10.123559
    15       O    -37.060915    57.767923    28.119163
    16       C     34.802219    11.583511   -24.428483
    17       H     28.624988   -27.967055   -21.746408
    18       H     -7.619184   -11.497961     7.655278
    19       H    -10.681015     9.779522    -9.536900
    20       H     -8.722102    11.783992     8.458278
    21       H     17.148272   -13.883924     5.862669
    22       H    -15.600224     4.615890    -5.280640
    23       H     -6.891610    13.934537     6.740331
    24       H    -11.997395    -8.455488    -4.863112
    25       H     -2.677024   -14.273438     4.319288
    26       C     12.601870     1.950020    -7.208783
    27       C      1.131625     5.736995   -14.230248
    28       C      3.979795    11.033421    23.638131
    29       C      2.222223     4.595354    -1.747432
    30       H     16.587322   -21.697621   -24.441991
    31       C     -5.479476    -0.209465     8.073781
    32       C      4.196963    -5.387325    -5.863324
    33       H    -21.840603    12.095031    -0.473082
    34       H    -10.187215     5.926911     0.583281
    35       O     -7.721917     3.309629    -1.748073
    36       H     -5.057469     6.147886     4.875106
    37       O      1.691617   -26.640328   -24.010715
    38       H     11.128952    15.455705    14.979435
    39       C     20.406120   -10.720495   -15.951346
    40       H    -16.843536     3.732635     0.330455
    41       H     -1.376587     0.571237    -3.149679
    42       H      5.441365    -4.859295     8.842422
    43       C      4.263301    -4.618548    10.329674
    44       H      4.190969    -2.868988     8.639383
    45       H     -5.888502    -6.648346    -3.887677
    46       H      2.627350     8.772942     2.869679
    47       C      2.151837     9.927637    -1.678294
    48       H      4.732581     7.739863    -0.309026
    49       H      0.972345     2.484339    -9.046785
    50       H     -4.661291     0.372743     6.860195
    51       C     -4.101425    -3.054309     6.340130
    52       H     -6.982893    -0.903194     5.164727
    53       H     -3.145899     0.093064    -0.738300
    54       H      8.306556     0.955881     4.918315


          GRADIENT NORM = 194.49196



 ** GRADIENT IS TOO LARGE TO ALLOW FORCE MATRIX TO BE CALCULATED, (LIMIT=10) **



 EITHER ADD 'LET' OR REDUCE GRADIENT
 USING 'TS' OR OTHER GEOMETRY OPTIMIZER



 TOTAL CPU TIME:             1.33 SECONDS

 == MOPAC DONE ==
