 *******************************************************************************
 ** Site#:  958            For non-commercial use only         Version 9.015L **
 *******************************************************************************
 ** Cite this work as: MOPAC2009, James J. P. Stewart, Stewart Computational  **
 ** Chemistry, Version 9.015L web: HTTP://OpenMOPAC.net                       **
 *******************************************************************************
 **                                                                           **
 **                                MOPAC2009                                  **
 **                                                                           **
 *******************************************************************************

                            PM6 CALCULATION RESULTS


 *******************************************************************************
 *  CALCULATION DONE:                                Thu Sep  8 08:03:55 2011  *
 *  PM6      - The PM6 Hamiltonian to be used
 *  PDBOUT   - PRINT GEOMETY IN PDB FORMAT
 *  MOZYME   - USE LOCALIZED M.O.s IN SOLVING THE SCF EQUATIONS
 *
 *
 *
 *                 CHARGE ON SYSTEM =     0
 *
 *
 *
 *  EPS= 78.400
 *  RSOLV=  1.300
 *  LET      - OVERRIDE SOME SAFETY CHECKS
 *  XYZ      - CARTESIAN COORDINATE SYSTEM TO BE USED
 *  LBFGS    - USE THE LBFGS GEOMETRY OPTIMIZER
 *  1SCF     - DO 1 SCF AND THEN STOP 
 *  T=       - A TIME OF  0.3E+08 SECONDS REQUESTED
 *  DUMP=N   - RESTART FILE WRITTEN EVERY  4320.000 SECONDS
 *  DDMIN=   - MINIMUM TRUST RADIUS  0.000 ANG/RAD
 *  GNORM=   - EXIT WHEN GRADIENT NORM DROPS BELOW .150    
 *  RELSCF   - DEFAULT SCF CRITERION MULTIPLIED BY   0.100    
 *             (DEFAULT SCFCRT= 0.00010)
 *  MULLIK   - THE MULLIKEN ANALYSIS TO BE PERFORMED
 *******************************************************************************
 PM6 T=31393017 DUMP=4320 XYZ EPS=78.40 RSOLV=1.30 MULLIK LBFGS MOZYME PDBOUT +
 CHARGE=0 RELSCF=0.1 LET DDMIN=0.0 GNORM=0.15 1SCF
 SJ000002349-1_T001S001I001C06_002: Geometry optimization step

   ATOM   CHEMICAL          X               Y              Z
  NUMBER   SYMBOL      (ANGSTROMS)     (ANGSTROMS)    (ANGSTROMS)
 
     1       C         -2.5250000  *  -26.455000  *   11.806000  *
     2       C         -2.2730000  *  -24.956000  *   11.645000  *
     3       C         -3.5130000  *  -24.275000  *   11.115000  *
     4       C         -4.3450000  *  -24.938000  *   10.289000  *
     5       C         -5.5860000  *  -24.261000  *    9.766000  *
     6       C         -5.9330000  *  -23.057000  *   10.606000  *
     7       C         -5.0060000  *  -22.510000  *   11.414000  *
     8       C         -5.3580000  *  -21.310000  *   12.261000  *
     9       C         -6.3900000  *  -20.443000  *   11.540000  *
    10       C         -7.6260000  *  -21.322000  *   11.346000  *
    11       C         -7.2340000  *  -22.524000  *   10.531000  *
    12       O         -8.0510000  *  -23.042000  *    9.798000  *
    13       O         -3.7610000  *  -23.007000  *   11.479000  *
    14       C         -4.0730000  *  -26.264000  *    9.903000  *
    15       O         -4.8360000  *  -26.834000  *    9.149000  *
    16       C         -2.8550000  *  -26.987000  *   10.410000  *
    17       H         -2.0110000  *  -24.528000  *   12.613000  *
    18       H         -1.4490000  *  -24.801000  *   10.948000  *
    19       H         -5.4140000  *  -23.943000  *    8.737000  *
    20       H         -5.7710000  *  -21.648000  *   13.212000  *
    21       H         -4.4580000  *  -20.722000  *   12.447000  *
    22       H         -8.0040000  *  -21.645000  *   12.316000  *
    23       H         -8.3990000  *  -20.760000  *   10.821000  *
    24       H         -2.0160000  *  -26.804000  *    9.740000  *
    25       H         -3.0590000  *  -28.056000  *   10.463000  *
    26       C         -6.7340000  *  -25.236000  *    9.797000  *
    27       C         -7.1540000  *  -25.774000  *   11.006000  *
    28       C         -8.2110000  *  -26.671000  *   11.033000  *
    29       C         -8.8460000  *  -27.028000  *    9.854000  *
    30       H         -8.5390000  *  -27.092000  *   11.972000  *
    31       C         -8.4230000  *  -26.487000  *    8.647000  *
    32       C         -7.3730000  *  -25.588000  *    8.624000  *
    33       H         -8.9170000  *  -26.763000  *    7.729000  *
    34       H         -7.0450000  *  -25.169000  *    7.685000  *
    35       O         -6.5300000  *  -25.423000  *   12.160000  *
    36       H         -7.0420000  *  -24.819000  *   12.716000  *
    37       O         -9.8830000  *  -27.905000  *    9.878000  *
    38       H        -10.4090000  *  -27.872000  *   10.689000  *
    39       C         -1.2700000  *  -27.145000  *   12.347000  *
    40       H         -0.4070000  *  -26.846000  *   11.752000  *
    41       H         -1.1150000  *  -26.853000  *   13.386000  *
    42       H         -1.3960000  *  -28.226000  *   12.287000  *
    43       C         -3.7030000  *  -26.692000  *   12.753000  *
    44       H         -4.4400000  *  -27.330000  *   12.265000  *
    45       H         -3.3470000  *  -27.177000  *   13.661000  *
    46       H         -4.1620000  *  -25.736000  *   13.008000  *
    47       C         -6.7410000  *  -19.223000  *   12.392000  *
    48       H         -7.3130000  *  -18.514000  *   11.794000  *
    49       H         -7.3350000  *  -19.537000  *   13.250000  *
    50       H         -5.8240000  *  -18.747000  *   12.740000  *
    51       C         -5.8430000  *  -19.996000  *   10.182000  *
    52       H         -5.8500000  *  -18.907000  *   10.129000  *
    53       H         -4.8220000  *  -20.360000  *   10.064000  *
    54       H         -6.4690000  *  -20.403000  *    9.387000  *
 


          CARTESIAN COORDINATES 

    NO.       ATOM         X         Y         Z

     1         C       -2.5250  -26.4550   11.8060
     2         C       -2.2730  -24.9560   11.6450
     3         C       -3.5130  -24.2750   11.1150
     4         C       -4.3450  -24.9380   10.2890
     5         C       -5.5860  -24.2610    9.7660
     6         C       -5.9330  -23.0570   10.6060
     7         C       -5.0060  -22.5100   11.4140
     8         C       -5.3580  -21.3100   12.2610
     9         C       -6.3900  -20.4430   11.5400
    10         C       -7.6260  -21.3220   11.3460
    11         C       -7.2340  -22.5240   10.5310
    12         O       -8.0510  -23.0420    9.7980
    13         O       -3.7610  -23.0070   11.4790
    14         C       -4.0730  -26.2640    9.9030
    15         O       -4.8360  -26.8340    9.1490
    16         C       -2.8550  -26.9870   10.4100
    17         H       -2.0110  -24.5280   12.6130
    18         H       -1.4490  -24.8010   10.9480
    19         H       -5.4140  -23.9430    8.7370
    20         H       -5.7710  -21.6480   13.2120
    21         H       -4.4580  -20.7220   12.4470
    22         H       -8.0040  -21.6450   12.3160
    23         H       -8.3990  -20.7600   10.8210
    24         H       -2.0160  -26.8040    9.7400
    25         H       -3.0590  -28.0560   10.4630
    26         C       -6.7340  -25.2360    9.7970
    27         C       -7.1540  -25.7740   11.0060
    28         C       -8.2110  -26.6710   11.0330
    29         C       -8.8460  -27.0280    9.8540
    30         H       -8.5390  -27.0920   11.9720
    31         C       -8.4230  -26.4870    8.6470
    32         C       -7.3730  -25.5880    8.6240
    33         H       -8.9170  -26.7630    7.7290
    34         H       -7.0450  -25.1690    7.6850
    35         O       -6.5300  -25.4230   12.1600
    36         H       -7.0420  -24.8190   12.7160
    37         O       -9.8830  -27.9050    9.8780
    38         H      -10.4090  -27.8720   10.6890
    39         C       -1.2700  -27.1450   12.3470
    40         H       -0.4070  -26.8460   11.7520
    41         H       -1.1150  -26.8530   13.3860
    42         H       -1.3960  -28.2260   12.2870
    43         C       -3.7030  -26.6920   12.7530
    44         H       -4.4400  -27.3300   12.2650
    45         H       -3.3470  -27.1770   13.6610
    46         H       -4.1620  -25.7360   13.0080
    47         C       -6.7410  -19.2230   12.3920
    48         H       -7.3130  -18.5140   11.7940
    49         H       -7.3350  -19.5370   13.2500
    50         H       -5.8240  -18.7470   12.7400
    51         C       -5.8430  -19.9960   10.1820
    52         H       -5.8500  -18.9070   10.1290
    53         H       -4.8220  -20.3600   10.0640
    54         H       -6.4690  -20.4030    9.3870

 General Reference for PM6:
 "Optimization of Parameters for Semiempirical Methods V: Modification of NDDO Approximations
 and Application to 70 Elements", J. J. P. Stewart, J. Mol. Mod., 13, 1173-1213 (2007)
 URL: http://www.springerlink.com/content/ar33482301010477/fulltext.pdf

           Empirical Formula: C23 H26 O5  =    54 atoms



      MOLECULAR POINT GROUP   :   C1  
 
   NUMBER AND TYPES OF BONDS IDENTIFIED
 
         SIGMA BONDS               57
         LONE PAIRS                10
         NORMAL PI BONDS            6
         AROMATIC RING PI BONDS     1
 

                  Ramachandran Angles
              Residue    phi    psi  omega

  
  SCF CRITERION =    0.1000E-02

 -------------------------------------------------------------------------------
 PM6 T=31393017 DUMP=4320 XYZ EPS=78.40 RSOLV=1.30 MULLIK LBFGS MOZYME PDBOUT +
 CHARGE=0 RELSCF=0.1 LET DDMIN=0.0 GNORM=0.15 1SCF
 SJ000002349-1_T001S001I001C06_002: Geometry optimization step



     1SCF WAS SPECIFIED, SO BFGS WAS NOT USED                 
     SCF FIELD WAS ACHIEVED                                   


                               PM6     CALCULATION
                                                       MOPAC2009 (Version: 9.015L)
                                                       Thu Sep  8 08:03:56 2011




          FINAL HEAT OF FORMATION =       -182.44764 KCAL =    -763.36094 KJ
          VAN DER WAALS AREA      =        353.08 SQUARE ANGSTROMS


          TOTAL ENERGY            =      -4641.94741 EV
          ELECTRONIC ENERGY       =     -42390.42767 EV
          CORE-CORE REPULSION     =      37748.48026 EV
          DIELECTRIC ENERGY       =         -1.31176 EV
          COSMO AREA              =        353.08 SQUARE ANGSTROMS
          COSMO VOLUME            =        451.60 CUBIC ANGSTROMS

          NO. OF FILLED LEVELS    =         74
          MOLECULAR WEIGHT        =        382.455

          MOLECULAR DIMENSIONS (Angstroms)

            Atom       Atom       Distance
            H    50    H    38    10.41607
            H    23    H    40     9.95591
            H    34    H    45     5.29728


          SCF CALCULATIONS        =          2
          COMPUTATION TIME        =          0.584 SECONDS




   ATOM           CHEMICAL             X               Y              Z
  NUMBER           SYMBOL         (ANGSTROMS)     (ANGSTROMS)    (ANGSTROMS)
 
     1       C(     1  C     )   -2.5250000  *  -26.455000  *   11.806000  *
     2       C(     2  C     )   -2.2730000  *  -24.956000  *   11.645000  *
     3       C(     3  C     )   -3.5130000  *  -24.275000  *   11.115000  *
     4       C(     4  C     )   -4.3450000  *  -24.938000  *   10.289000  *
     5       C(     5  C     )   -5.5860000  *  -24.261000  *    9.766000  *
     6       C(     6  C     )   -5.9330000  *  -23.057000  *   10.606000  *
     7       C(     7  C     )   -5.0060000  *  -22.510000  *   11.414000  *
     8       C(     8  C     )   -5.3580000  *  -21.310000  *   12.261000  *
     9       C(     9  C     )   -6.3900000  *  -20.443000  *   11.540000  *
    10       C(    10  C     )   -7.6260000  *  -21.322000  *   11.346000  *
    11       C(    11  C     )   -7.2340000  *  -22.524000  *   10.531000  *
    12       O(    12  O     )   -8.0510000  *  -23.042000  *    9.798000  *
    13       O(    13  O     )   -3.7610000  *  -23.007000  *   11.479000  *
    14       C(    14  C     )   -4.0730000  *  -26.264000  *    9.903000  *
    15       O(    15  O     )   -4.8360000  *  -26.834000  *    9.149000  *
    16       C(    16  C     )   -2.8550000  *  -26.987000  *   10.410000  *
    17       H(    17  C     )   -2.0110000  *  -24.528000  *   12.613000  *
    18       H(    18  C     )   -1.4490000  *  -24.801000  *   10.948000  *
    19       H(    19  C     )   -5.4140000  *  -23.943000  *    8.737000  *
    20       H(    20  C     )   -5.7710000  *  -21.648000  *   13.212000  *
    21       H(    21  C     )   -4.4580000  *  -20.722000  *   12.447000  *
    22       H(    22  C     )   -8.0040000  *  -21.645000  *   12.316000  *
    23       H(    23  C     )   -8.3990000  *  -20.760000  *   10.821000  *
    24       H(    24  C     )   -2.0160000  *  -26.804000  *    9.740000  *
    25       H(    25  C     )   -3.0590000  *  -28.056000  *   10.463000  *
    26       C(    26  C     )   -6.7340000  *  -25.236000  *    9.797000  *
    27       C(    27  C     )   -7.1540000  *  -25.774000  *   11.006000  *
    28       C(    28  C     )   -8.2110000  *  -26.671000  *   11.033000  *
    29       C(    29  C     )   -8.8460000  *  -27.028000  *    9.854000  *
    30       H(    30  C     )   -8.5390000  *  -27.092000  *   11.972000  *
    31       C(    31  C     )   -8.4230000  *  -26.487000  *    8.647000  *
    32       C(    32  C     )   -7.3730000  *  -25.588000  *    8.624000  *
    33       H(    33  C     )   -8.9170000  *  -26.763000  *    7.729000  *
    34       H(    34  C     )   -7.0450000  *  -25.169000  *    7.685000  *
    35       O(    35  O     )   -6.5300000  *  -25.423000  *   12.160000  *
    36       H(    36  O     )   -7.0420000  *  -24.819000  *   12.716000  *
    37       O(    37  O     )   -9.8830000  *  -27.905000  *    9.878000  *
    38       H(    38  O     )  -10.4090000  *  -27.872000  *   10.689000  *
    39       C(    39  C     )   -1.2700000  *  -27.145000  *   12.347000  *
    40       H(    40  C     )   -0.4070000  *  -26.846000  *   11.752000  *
    41       H(    41  C     )   -1.1150000  *  -26.853000  *   13.386000  *
    42       H(    42  C     )   -1.3960000  *  -28.226000  *   12.287000  *
    43       C(    43  C     )   -3.7030000  *  -26.692000  *   12.753000  *
    44       H(    44  C     )   -4.4400000  *  -27.330000  *   12.265000  *
    45       H(    45  C     )   -3.3470000  *  -27.177000  *   13.661000  *
    46       H(    46  C     )   -4.1620000  *  -25.736000  *   13.008000  *
    47       C(    47  C     )   -6.7410000  *  -19.223000  *   12.392000  *
    48       H(    48  C     )   -7.3130000  *  -18.514000  *   11.794000  *
    49       H(    49  C     )   -7.3350000  *  -19.537000  *   13.250000  *
    50       H(    50  C     )   -5.8240000  *  -18.747000  *   12.740000  *
    51       C(    51  C     )   -5.8430000  *  -19.996000  *   10.182000  *
    52       H(    52  C     )   -5.8500000  *  -18.907000  *   10.129000  *
    53       H(    53  C     )   -4.8220000  *  -20.360000  *   10.064000  *
    54       H(    54  C     )   -6.4690000  *  -20.403000  *    9.387000  *

           Empirical Formula: C23 H26 O5  =    54 atoms



              NET ATOMIC CHARGES AND DIPOLE CONTRIBUTIONS

  ATOM NO.   TYPE          CHARGE      No. of ELECS.   s-Pop       p-Pop       
    1          C           0.288424        3.7116     1.06302     2.64856
    2          C          -0.420441        4.4204     1.10614     3.31430
    3          C           0.431399        3.5686     1.09856     2.47004
    4          C          -0.463543        4.4635     1.10997     3.35357
    5          C           0.133135        3.8669     1.05022     2.81665
    6          C          -0.482839        4.4828     1.11030     3.37254
    7          C           0.439099        3.5609     1.09870     2.46220
    8          C          -0.424477        4.4245     1.10702     3.31745
    9          C           0.289206        3.7108     1.06233     2.64847
   10          C          -0.535545        4.5355     1.11806     3.41748
   11          C           0.658121        3.3419     1.07433     2.26755
   12          O          -0.620849        6.6208     1.84475     4.77610
   13          O          -0.349064        6.3491     1.78151     4.56755
   14          C           0.668539        3.3315     1.07388     2.25758
   15          O          -0.629293        6.6293     1.84486     4.78443
   16          C          -0.533712        4.5337     1.11781     3.41591
   17          H           0.195700        0.8043     0.80430
   18          H           0.202143        0.7979     0.79786
   19          H           0.136556        0.8634     0.86344
   20          H           0.205349        0.7947     0.79465
   21          H           0.197202        0.8028     0.80280
   22          H           0.203996        0.7960     0.79600
   23          H           0.201818        0.7982     0.79818
   24          H           0.204543        0.7955     0.79546
   25          H           0.199325        0.8007     0.80068
   26          C          -0.150315        4.1503     1.09321     3.05710
   27          C           0.392114        3.6079     1.05780     2.55008
   28          C          -0.503975        4.5040     1.11317     3.39080
   29          C           0.389968        3.6100     1.05888     2.55115
   30          H           0.199205        0.8008     0.80079
   31          C          -0.380467        4.3805     1.09840     3.28207
   32          C           0.024252        3.9757     1.09595     2.87980
   33          H           0.183488        0.8165     0.81651
   34          H           0.153141        0.8469     0.84686
   35          O          -0.546575        6.5466     1.77423     4.77235
   36          H           0.359725        0.6403     0.64027
   37          O          -0.541378        6.5414     1.77845     4.76293
   38          H           0.368347        0.6317     0.63165
   39          C          -0.544588        4.5446     1.09515     3.44944
   40          H           0.168183        0.8318     0.83182
   41          H           0.171683        0.8283     0.82832
   42          H           0.172027        0.8280     0.82797
   43          C          -0.552784        4.5528     1.09648     3.45630
   44          H           0.171769        0.8282     0.82823
   45          H           0.169563        0.8304     0.83044
   46          H           0.173741        0.8263     0.82626
   47          C          -0.544658        4.5447     1.09480     3.44986
   48          H           0.173738        0.8263     0.82626
   49          H           0.169919        0.8301     0.83008
   50          H           0.171315        0.8287     0.82869
   51          C          -0.558451        4.5585     1.09734     3.46111
   52          H           0.174733        0.8253     0.82527
   53          H           0.171446        0.8286     0.82855
   54          H           0.170042        0.8300     0.82996


          CARTESIAN COORDINATES 

    NO.       ATOM               X         Y         Z

     1         C                 -2.5250  -26.4550   11.8060
     2         C                 -2.2730  -24.9560   11.6450
     3         C                 -3.5130  -24.2750   11.1150
     4         C                 -4.3450  -24.9380   10.2890
     5         C                 -5.5860  -24.2610    9.7660
     6         C                 -5.9330  -23.0570   10.6060
     7         C                 -5.0060  -22.5100   11.4140
     8         C                 -5.3580  -21.3100   12.2610
     9         C                 -6.3900  -20.4430   11.5400
    10         C                 -7.6260  -21.3220   11.3460
    11         C                 -7.2340  -22.5240   10.5310
    12         O                 -8.0510  -23.0420    9.7980
    13         O                 -3.7610  -23.0070   11.4790
    14         C                 -4.0730  -26.2640    9.9030
    15         O                 -4.8360  -26.8340    9.1490
    16         C                 -2.8550  -26.9870   10.4100
    17         H                 -2.0110  -24.5280   12.6130
    18         H                 -1.4490  -24.8010   10.9480
    19         H                 -5.4140  -23.9430    8.7370
    20         H                 -5.7710  -21.6480   13.2120
    21         H                 -4.4580  -20.7220   12.4470
    22         H                 -8.0040  -21.6450   12.3160
    23         H                 -8.3990  -20.7600   10.8210
    24         H                 -2.0160  -26.8040    9.7400
    25         H                 -3.0590  -28.0560   10.4630
    26         C                 -6.7340  -25.2360    9.7970
    27         C                 -7.1540  -25.7740   11.0060
    28         C                 -8.2110  -26.6710   11.0330
    29         C                 -8.8460  -27.0280    9.8540
    30         H                 -8.5390  -27.0920   11.9720
    31         C                 -8.4230  -26.4870    8.6470
    32         C                 -7.3730  -25.5880    8.6240
    33         H                 -8.9170  -26.7630    7.7290
    34         H                 -7.0450  -25.1690    7.6850
    35         O                 -6.5300  -25.4230   12.1600
    36         H                 -7.0420  -24.8190   12.7160
    37         O                 -9.8830  -27.9050    9.8780
    38         H                -10.4090  -27.8720   10.6890
    39         C                 -1.2700  -27.1450   12.3470
    40         H                 -0.4070  -26.8460   11.7520
    41         H                 -1.1150  -26.8530   13.3860
    42         H                 -1.3960  -28.2260   12.2870
    43         C                 -3.7030  -26.6920   12.7530
    44         H                 -4.4400  -27.3300   12.2650
    45         H                 -3.3470  -27.1770   13.6610
    46         H                 -4.1620  -25.7360   13.0080
    47         C                 -6.7410  -19.2230   12.3920
    48         H                 -7.3130  -18.5140   11.7940
    49         H                 -7.3350  -19.5370   13.2500
    50         H                 -5.8240  -18.7470   12.7400
    51         C                 -5.8430  -19.9960   10.1820
    52         H                 -5.8500  -18.9070   10.1290
    53         H                 -4.8220  -20.3600   10.0640
    54         H                 -6.4690  -20.4030    9.3870


          ATOMIC ORBITAL ELECTRON POPULATIONS

   1.06302   0.91395   0.85386   0.88075   1.10614   1.05461   1.07636   1.18334
   1.09856   0.90280   0.74065   0.82659   1.10997   1.09705   1.08591   1.17061
   1.05022   0.89609   0.89431   1.02625   1.11030   1.07311   1.12693   1.17249
   1.09870   0.75485   0.85917   0.84818   1.10702   1.15610   1.04683   1.11452
   1.06233   0.86002   0.88671   0.90174   1.11806   1.14004   1.10087   1.17658
   1.07433   0.81165   0.75751   0.69839   1.84475   1.62223   1.66373   1.49013
   1.78151   1.41387   1.38382   1.76986   1.07388   0.76642   0.81662   0.67453
   1.84486   1.57381   1.74558   1.46504   1.11781   1.12834   1.17129   1.11628
   0.80430   0.79786   0.86344   0.79465   0.80280   0.79600   0.79818   0.79546
   0.80068   1.09321   1.03377   1.03679   0.98655   1.05780   0.85961   0.88425
   0.80622   1.11317   1.11866   1.16485   1.10729   1.05888   0.80254   0.81709
   0.93151   0.80079   1.09840   1.10661   1.10206   1.07339   1.09595   0.92447
   0.92324   1.03208   0.81651   0.84686   1.77423   1.60713   1.73262   1.43260
   0.64027   1.77845   1.51227   1.65896   1.59169   0.63165   1.09515   1.10582
   1.16735   1.17627   0.83182   0.82832   0.82797   1.09648   1.11579   1.19424
   1.14627   0.82823   0.83044   0.82626   1.09480   1.18649   1.10955   1.15381
   0.82626   0.83008   0.82869   1.09734   1.17707   1.18983   1.09421   0.82527
   0.82855   0.82996

           MULLIKEN POPULATION ANALYSIS



        MULLIKEN POPULATIONS AND CHARGES

      NO.  ATOM   POPULATION      CHARGE
        1    C     3.682489      0.317511
        2    C     4.538865     -0.538865
        3    C     3.545565      0.454435
        4    C     4.510775     -0.510775
        5    C     3.863504      0.136496
        6    C     4.531670     -0.531670
        7    C     3.537129      0.462871
        8    C     4.543836     -0.543836
        9    C     3.681347      0.318653
       10    C     4.666885     -0.666885
       11    C     3.290281      0.709719
       12    O     6.645555     -0.645555
       13    O     6.396515     -0.396515
       14    C     3.278878      0.721122
       15    O     6.654473     -0.654473
       16    C     4.665033     -0.665033
       17    H     0.747918      0.252082
       18    H     0.741726      0.258274
       19    H     0.818380      0.181620
       20    H     0.737910      0.262090
       21    H     0.746232      0.253768
       22    H     0.740470      0.259530
       23    H     0.740834      0.259166
       24    H     0.739515      0.260485
       25    H     0.743984      0.256016
       26    C     4.165812     -0.165812
       27    C     3.580248      0.419752
       28    C     4.584755     -0.584755
       29    C     3.586246      0.413754
       30    H     0.738777      0.261223
       31    C     4.448111     -0.448111
       32    C     4.006563     -0.006563
       33    H     0.757973      0.242027
       34    H     0.797680      0.202320
       35    O     6.595802     -0.595802
       36    H     0.607045      0.392955
       37    O     6.593454     -0.593454
       38    H     0.597056      0.402944
       39    C     4.691471     -0.691471
       40    H     0.784016      0.215984
       41    H     0.780117      0.219883
       42    H     0.779712      0.220288
       43    C     4.698060     -0.698060
       44    H     0.780352      0.219648
       45    H     0.782827      0.217173
       46    H     0.777801      0.222199
       47    C     4.691848     -0.691848
       48    H     0.777678      0.222322
       49    H     0.781801      0.218199
       50    H     0.780541      0.219459
       51    C     4.704758     -0.704758
       52    H     0.776486      0.223514
       53    H     0.780656      0.219344
       54    H     0.782586      0.217414



 TOTAL CPU TIME:             0.62 SECONDS

 == MOPAC DONE ==
 *******************************************************************************
 ** Site#:  958            For non-commercial use only         Version 9.015L **
 *******************************************************************************
 ** Cite this work as: MOPAC2009, James J. P. Stewart, Stewart Computational  **
 ** Chemistry, Version 9.015L web: HTTP://OpenMOPAC.net                       **
 *******************************************************************************
 **                                                                           **
 **                                MOPAC2009                                  **
 **                                                                           **
 *******************************************************************************

                            PM6 CALCULATION RESULTS


 *******************************************************************************
 *  CALCULATION DONE:                                Thu Sep  8 08:03:56 2011  *
 *  PM6      - The PM6 Hamiltonian to be used
 *  GEO-OK   - OVERRIDE INTERATOMIC DISTANCE CHECK
 *  MOZYME   - USE LOCALIZED M.O.s IN SOLVING THE SCF EQUATIONS
 *
 *
 *
 *                 CHARGE ON SYSTEM =     0
 *
 *
 *
 *  EPS= 78.400
 *  RSOLV=  1.300
 *  OLDGEO   - PREVIOUS GEOMETRY TO BE USED
 *  T=       - A TIME OF 172800.0 SECONDS REQUESTED
 *  DUMP=N   - RESTART FILE WRITTEN EVERY  4320.000 SECONDS
 *  RELSCF   - DEFAULT SCF CRITERION MULTIPLIED BY   0.100    
 *             (DEFAULT SCFCRT= 0.00010)
 *  THERMO   - THERMODYNAMIC QUANTITIES TO BE CALCULATED
 *******************************************************************************
 PM6 DUMP=4320 MOZYME RELSCF=0.1 THERMO EPS=78.40 RSOLV=1.30 +
 OLDGEO GEO-OK CHARGE=0
 SJ000002349-1_T001S001I001C06_002: Free energy calculation

   ATOM           CHEMICAL             X               Y              Z
  NUMBER           SYMBOL         (ANGSTROMS)     (ANGSTROMS)    (ANGSTROMS)
 
     1       C(     1  C     )   -2.5250000  *  -26.455000  *   11.806000  *
     2       C(     2  C     )   -2.2730000  *  -24.956000  *   11.645000  *
     3       C(     3  C     )   -3.5130000  *  -24.275000  *   11.115000  *
     4       C(     4  C     )   -4.3450000  *  -24.938000  *   10.289000  *
     5       C(     5  C     )   -5.5860000  *  -24.261000  *    9.766000  *
     6       C(     6  C     )   -5.9330000  *  -23.057000  *   10.606000  *
     7       C(     7  C     )   -5.0060000  *  -22.510000  *   11.414000  *
     8       C(     8  C     )   -5.3580000  *  -21.310000  *   12.261000  *
     9       C(     9  C     )   -6.3900000  *  -20.443000  *   11.540000  *
    10       C(    10  C     )   -7.6260000  *  -21.322000  *   11.346000  *
    11       C(    11  C     )   -7.2340000  *  -22.524000  *   10.531000  *
    12       O(    12  O     )   -8.0510000  *  -23.042000  *    9.798000  *
    13       O(    13  O     )   -3.7610000  *  -23.007000  *   11.479000  *
    14       C(    14  C     )   -4.0730000  *  -26.264000  *    9.903000  *
    15       O(    15  O     )   -4.8360000  *  -26.834000  *    9.149000  *
    16       C(    16  C     )   -2.8550000  *  -26.987000  *   10.410000  *
    17       H(    17  C     )   -2.0110000  *  -24.528000  *   12.613000  *
    18       H(    18  C     )   -1.4490000  *  -24.801000  *   10.948000  *
    19       H(    19  C     )   -5.4140000  *  -23.943000  *    8.737000  *
    20       H(    20  C     )   -5.7710000  *  -21.648000  *   13.212000  *
    21       H(    21  C     )   -4.4580000  *  -20.722000  *   12.447000  *
    22       H(    22  C     )   -8.0040000  *  -21.645000  *   12.316000  *
    23       H(    23  C     )   -8.3990000  *  -20.760000  *   10.821000  *
    24       H(    24  C     )   -2.0160000  *  -26.804000  *    9.740000  *
    25       H(    25  C     )   -3.0590000  *  -28.056000  *   10.463000  *
    26       C(    26  C     )   -6.7340000  *  -25.236000  *    9.797000  *
    27       C(    27  C     )   -7.1540000  *  -25.774000  *   11.006000  *
    28       C(    28  C     )   -8.2110000  *  -26.671000  *   11.033000  *
    29       C(    29  C     )   -8.8460000  *  -27.028000  *    9.854000  *
    30       H(    30  C     )   -8.5390000  *  -27.092000  *   11.972000  *
    31       C(    31  C     )   -8.4230000  *  -26.487000  *    8.647000  *
    32       C(    32  C     )   -7.3730000  *  -25.588000  *    8.624000  *
    33       H(    33  C     )   -8.9170000  *  -26.763000  *    7.729000  *
    34       H(    34  C     )   -7.0450000  *  -25.169000  *    7.685000  *
    35       O(    35  O     )   -6.5300000  *  -25.423000  *   12.160000  *
    36       H(    36  O     )   -7.0420000  *  -24.819000  *   12.716000  *
    37       O(    37  O     )   -9.8830000  *  -27.905000  *    9.878000  *
    38       H(    38  O     )  -10.4090000  *  -27.872000  *   10.689000  *
    39       C(    39  C     )   -1.2700000  *  -27.145000  *   12.347000  *
    40       H(    40  C     )   -0.4070000  *  -26.846000  *   11.752000  *
    41       H(    41  C     )   -1.1150000  *  -26.853000  *   13.386000  *
    42       H(    42  C     )   -1.3960000  *  -28.226000  *   12.287000  *
    43       C(    43  C     )   -3.7030000  *  -26.692000  *   12.753000  *
    44       H(    44  C     )   -4.4400000  *  -27.330000  *   12.265000  *
    45       H(    45  C     )   -3.3470000  *  -27.177000  *   13.661000  *
    46       H(    46  C     )   -4.1620000  *  -25.736000  *   13.008000  *
    47       C(    47  C     )   -6.7410000  *  -19.223000  *   12.392000  *
    48       H(    48  C     )   -7.3130000  *  -18.514000  *   11.794000  *
    49       H(    49  C     )   -7.3350000  *  -19.537000  *   13.250000  *
    50       H(    50  C     )   -5.8240000  *  -18.747000  *   12.740000  *
    51       C(    51  C     )   -5.8430000  *  -19.996000  *   10.182000  *
    52       H(    52  C     )   -5.8500000  *  -18.907000  *   10.129000  *
    53       H(    53  C     )   -4.8220000  *  -20.360000  *   10.064000  *
    54       H(    54  C     )   -6.4690000  *  -20.403000  *    9.387000  *
 


          CARTESIAN COORDINATES 

    NO.       ATOM         X         Y         Z

     1         C       -2.5250  -26.4550   11.8060
     2         C       -2.2730  -24.9560   11.6450
     3         C       -3.5130  -24.2750   11.1150
     4         C       -4.3450  -24.9380   10.2890
     5         C       -5.5860  -24.2610    9.7660
     6         C       -5.9330  -23.0570   10.6060
     7         C       -5.0060  -22.5100   11.4140
     8         C       -5.3580  -21.3100   12.2610
     9         C       -6.3900  -20.4430   11.5400
    10         C       -7.6260  -21.3220   11.3460
    11         C       -7.2340  -22.5240   10.5310
    12         O       -8.0510  -23.0420    9.7980
    13         O       -3.7610  -23.0070   11.4790
    14         C       -4.0730  -26.2640    9.9030
    15         O       -4.8360  -26.8340    9.1490
    16         C       -2.8550  -26.9870   10.4100
    17         H       -2.0110  -24.5280   12.6130
    18         H       -1.4490  -24.8010   10.9480
    19         H       -5.4140  -23.9430    8.7370
    20         H       -5.7710  -21.6480   13.2120
    21         H       -4.4580  -20.7220   12.4470
    22         H       -8.0040  -21.6450   12.3160
    23         H       -8.3990  -20.7600   10.8210
    24         H       -2.0160  -26.8040    9.7400
    25         H       -3.0590  -28.0560   10.4630
    26         C       -6.7340  -25.2360    9.7970
    27         C       -7.1540  -25.7740   11.0060
    28         C       -8.2110  -26.6710   11.0330
    29         C       -8.8460  -27.0280    9.8540
    30         H       -8.5390  -27.0920   11.9720
    31         C       -8.4230  -26.4870    8.6470
    32         C       -7.3730  -25.5880    8.6240
    33         H       -8.9170  -26.7630    7.7290
    34         H       -7.0450  -25.1690    7.6850
    35         O       -6.5300  -25.4230   12.1600
    36         H       -7.0420  -24.8190   12.7160
    37         O       -9.8830  -27.9050    9.8780
    38         H      -10.4090  -27.8720   10.6890
    39         C       -1.2700  -27.1450   12.3470
    40         H       -0.4070  -26.8460   11.7520
    41         H       -1.1150  -26.8530   13.3860
    42         H       -1.3960  -28.2260   12.2870
    43         C       -3.7030  -26.6920   12.7530
    44         H       -4.4400  -27.3300   12.2650
    45         H       -3.3470  -27.1770   13.6610
    46         H       -4.1620  -25.7360   13.0080
    47         C       -6.7410  -19.2230   12.3920
    48         H       -7.3130  -18.5140   11.7940
    49         H       -7.3350  -19.5370   13.2500
    50         H       -5.8240  -18.7470   12.7400
    51         C       -5.8430  -19.9960   10.1820
    52         H       -5.8500  -18.9070   10.1290
    53         H       -4.8220  -20.3600   10.0640
    54         H       -6.4690  -20.4030    9.3870

 General Reference for PM6:
 "Optimization of Parameters for Semiempirical Methods V: Modification of NDDO Approximations
 and Application to 70 Elements", J. J. P. Stewart, J. Mol. Mod., 13, 1173-1213 (2007)
 URL: http://www.springerlink.com/content/ar33482301010477/fulltext.pdf

           Empirical Formula: C23 H26 O5  =    54 atoms



      MOLECULAR POINT GROUP   :   C1  
 
   NUMBER AND TYPES OF BONDS IDENTIFIED
 
         SIGMA BONDS               57
         LONE PAIRS                10
         NORMAL PI BONDS            6
         AROMATIC RING PI BONDS     1
 
  SCF CRITERION =    0.1000E-02


          HEAT OF FORMATION =    -182.447793 KCALS/MOLE


          INTERNAL COORDINATE DERIVATIVES

   NUMBER  ATOM       BOND         ANGLE      DIHEDRAL

     1       C
     2       C     11.271785
     3       C      8.794265    -2.791915
     4       C    -30.275868   -17.289672   -14.738344
     5       C     40.570085    18.664160    24.742549
     6       C    -50.888624   -10.839743   -15.645548
     7       C      8.246328    -3.353024    -7.984325
     8       C     13.638937    45.498632    18.598607
     9       C    -14.988097   -39.522208   -22.335137
    10       C     11.897843    29.315389    21.401734
    11       C    -11.893382    -5.934013    -3.669305
    12       O      2.272759     5.059032     9.916359
    13       O     -5.284732   -44.441886   -13.723719
    14       C      6.962388   -38.924631     8.489667
    15       O    -40.908546    56.682424   -29.986798
    16       C     39.842813     5.517944    26.248427
    17       H     27.178411   -15.686618    24.754275
    18       H     -4.965111    -8.446423    -7.573864
    19       H     -8.595961    11.339709    -8.103530
    20       H    -10.280689     9.501524     8.710219
    21       H    -10.232418    -2.141148    17.507154
    22       H      5.887181     6.567796   -13.887690
    23       H     -7.214855    13.285329    -6.334820
    24       H      5.568136    -6.918937   -12.124979
    25       H     -2.706307   -13.595355    -4.171060
    26       C      1.204613     5.924027    14.250811
    27       C     12.526887     2.124381     7.365992
    28       C    -18.268003    16.261921     4.050084
    29       C      6.805507   -16.388079    -1.839207
    30       H     13.522934     3.464546   -26.613044
    31       C     -8.613818     7.039993    -4.884634
    32       C      3.047179     0.721688    -7.122229
    33       H     11.799589   -20.669997    15.980025
    34       H      2.504325    -3.755863    12.298759
    35       O      2.569395    -6.187891     5.137646
    36       H     -4.947973    -1.522590     7.875713
    37       O      2.916457    25.902760    -9.756267
    38       H     -3.026236    -5.623641    -7.958158
    39       C      9.789092   -13.764833    21.220000
    40       H      4.100827    -0.197704   -15.244433
    41       H     -6.407439    -6.759354     2.688125
    42       H      2.059624     8.012933     1.748974
    43       C      1.456284     7.326831    -1.673695
    44       H      4.264665     5.554822    -0.131696
    45       H      1.226027     5.688124     1.451630
    46       H      3.953026    -5.409641    -8.257618
    47       C      3.636031    -3.374775    -8.104414
    48       H      4.378839    -6.911971    -9.361503
    49       H      7.835777     3.000789     2.335459
    50       H     -5.306067    -3.306372    -4.319354
    51       C     -4.089429    -0.923197    -7.518349
    52       H     -6.308604     0.803793    -4.569394
    53       H     -0.631525    -0.178450    -3.631601
    54       H     -5.031299    -0.002947     8.126667


          GRADIENT NORM = 190.86020



 ** GRADIENT IS TOO LARGE TO ALLOW FORCE MATRIX TO BE CALCULATED, (LIMIT=10) **



 EITHER ADD 'LET' OR REDUCE GRADIENT
 USING 'TS' OR OTHER GEOMETRY OPTIMIZER



 TOTAL CPU TIME:             1.34 SECONDS

 == MOPAC DONE ==
